 Entering Gaussian System, Link 0=g16
 Input=hono_eq.gjf
 Output=hono_eq.log
 Initial command:
 /sw/contrib/gaussian/g16/B01/g16/l1.exe "/scr/Gau-7938.inp" -scrdir="/scr/"
 Entering Link 1 = /sw/contrib/gaussian/g16/B01/g16/l1.exe PID=      7940.
  
 Copyright (c) 1988-2017, Gaussian, Inc.  All Rights Reserved.
  
 This is part of the Gaussian(R) 16 program.  It is based on
 the Gaussian(R) 09 system (copyright 2009, Gaussian, Inc.),
 the Gaussian(R) 03 system (copyright 2003, Gaussian, Inc.),
 the Gaussian(R) 98 system (copyright 1998, Gaussian, Inc.),
 the Gaussian(R) 94 system (copyright 1995, Gaussian, Inc.),
 the Gaussian 92(TM) system (copyright 1992, Gaussian, Inc.),
 the Gaussian 90(TM) system (copyright 1990, Gaussian, Inc.),
 the Gaussian 88(TM) system (copyright 1988, Gaussian, Inc.),
 the Gaussian 86(TM) system (copyright 1986, Carnegie Mellon
 University), and the Gaussian 82(TM) system (copyright 1983,
 Carnegie Mellon University). Gaussian is a federally registered
 trademark of Gaussian, Inc.
  
 This software contains proprietary and confidential information,
 including trade secrets, belonging to Gaussian, Inc.
  
 This software is provided under written license and may be
 used, copied, transmitted, or stored only in accord with that
 written license.
  
 The following legend is applicable only to US Government
 contracts under FAR:
  
                    RESTRICTED RIGHTS LEGEND
  
 Use, reproduction and disclosure by the US Government is
 subject to restrictions as set forth in subparagraphs (a)
 and (c) of the Commercial Computer Software - Restricted
 Rights clause in FAR 52.227-19.
  
 Gaussian, Inc.
 340 Quinnipiac St., Bldg. 40, Wallingford CT 06492
  
  
 ---------------------------------------------------------------
 Warning -- This program may not be used in any manner that
 competes with the business of Gaussian, Inc. or will provide
 assistance to any competitor of Gaussian, Inc.  The licensee
 of this program is prohibited from giving any competitor of
 Gaussian, Inc. access to this program.  By using this program,
 the user acknowledges that Gaussian, Inc. is engaged in the
 business of creating and licensing software in the field of
 computational chemistry and represents and warrants to the
 licensee that it is not a competitor of Gaussian, Inc. and that
 it will not use this program in any manner prohibited above.
 ---------------------------------------------------------------
  

 Cite this work as:
 Gaussian 16, Revision B.01,
 M. J. Frisch, G. W. Trucks, H. B. Schlegel, G. E. Scuseria, 
 M. A. Robb, J. R. Cheeseman, G. Scalmani, V. Barone, 
 G. A. Petersson, H. Nakatsuji, X. Li, M. Caricato, A. V. Marenich, 
 J. Bloino, B. G. Janesko, R. Gomperts, B. Mennucci, H. P. Hratchian, 
 J. V. Ortiz, A. F. Izmaylov, J. L. Sonnenberg, D. Williams-Young, 
 F. Ding, F. Lipparini, F. Egidi, J. Goings, B. Peng, A. Petrone, 
 T. Henderson, D. Ranasinghe, V. G. Zakrzewski, J. Gao, N. Rega, 
 G. Zheng, W. Liang, M. Hada, M. Ehara, K. Toyota, R. Fukuda, 
 J. Hasegawa, M. Ishida, T. Nakajima, Y. Honda, O. Kitao, H. Nakai, 
 T. Vreven, K. Throssell, J. A. Montgomery, Jr., J. E. Peralta, 
 F. Ogliaro, M. J. Bearpark, J. J. Heyd, E. N. Brothers, K. N. Kudin, 
 V. N. Staroverov, T. A. Keith, R. Kobayashi, J. Normand, 
 K. Raghavachari, A. P. Rendell, J. C. Burant, S. S. Iyengar, 
 J. Tomasi, M. Cossi, J. M. Millam, M. Klene, C. Adamo, R. Cammi, 
 J. W. Ochterski, R. L. Martin, K. Morokuma, O. Farkas, 
 J. B. Foresman, and D. J. Fox, Gaussian, Inc., Wallingford CT, 2016.
 
 ******************************************
 Gaussian 16:  ES64L-G16RevB.01 20-Dec-2017
                18-Jan-2022 
 ******************************************
 %nproc=28
 Will use up to   28 processors via shared memory.
 %mem=120GB
 %chk=/gscratch/ilahie/mccoygrp/coire_hoono/hono/hono_eq.chk
 ------------------------------------------------------
 #p freq opt=(z-matrix) mp2/aug-cc-pvtz density=current
 ------------------------------------------------------
 1/10=7,18=40,38=1/1,3;
 2/12=2,17=6,18=5,29=3,40=1/2;
 3/5=16,6=1,7=10,11=9,25=1,30=1,71=1/1,2,3;
 4//1;
 5/5=2,38=5/2;
 8/6=4,10=1/1;
 9/15=2,16=-3/6;
 10/5=1/2;
 6/7=2,8=2,9=2,10=2,22=-1/1;
 7/12=2,29=1/1,2,3,16;
 1/10=7,18=40/3(2);
 2/29=3/2;
 99//99;
 2/29=3/2;
 3/5=16,6=1,7=10,11=9,25=1,30=1,71=1/1,2,3;
 4/5=5,16=3,69=1/1;
 5/5=2,38=5/2;
 8/6=4,10=1/1;
 9/15=2,16=-3/6;
 10/5=1/2;
 7/12=2/1,2,3,16;
 1/18=40/3(-8);
 2/29=3/2;
 6/7=2,8=2,9=2,10=2,22=-1/1;
 99/9=10/99;
 Leave Link    1 at Tue Jan 18 15:46:27 2022, MaxMem= 16106127360 cpu:               3.0 elap:               0.1
 (Enter /sw/contrib/gaussian/g16/B01/g16/l101.exe)
 -----
 title
 -----
 Symbolic Z-matrix:
 Charge =  0 Multiplicity = 1
 H
 O                    1    r1
 N                    2    r2       1    a1
 O                    3    r3       2    a2       1    d1       0
       Variables:
  r1                    0.99                     
  r2                    1.353                    
  r3                    1.353                    
  a1                  104.5                      
  a2                  106.7                      
  d1                  180.                       
 
 ITRead=  0  0  0  0
 MicOpt= -1 -1 -1 -1
 NAtoms=      4 NQM=        4 NQMF=       0 NMMI=      0 NMMIF=      0
                NMic=       0 NMicF=      0.
                    Isotopes and Nuclear Properties:
 (Nuclear quadrupole moments (NQMom) in fm**2, nuclear magnetic moments (NMagM)
  in nuclear magnetons)

  Atom         1           2           3           4
 IAtWgt=           1          16          14          16
 AtmWgt=   1.0078250  15.9949146  14.0030740  15.9949146
 NucSpn=           1           0           2           0
 AtZEff=  -0.0000000  -0.0000000  -0.0000000  -0.0000000
 NQMom=    0.0000000   0.0000000   2.0440000   0.0000000
 NMagM=    2.7928460   0.0000000   0.4037610   0.0000000
 AtZNuc=   1.0000000   8.0000000   7.0000000   8.0000000
 Leave Link  101 at Tue Jan 18 15:46:27 2022, MaxMem= 16106127360 cpu:               3.1 elap:               0.1
 (Enter /sw/contrib/gaussian/g16/B01/g16/l103.exe)

 GradGradGradGradGradGradGradGradGradGradGradGradGradGradGradGradGradGrad
 Berny optimization.
 Initialization pass.
                       ----------------------------
                       !    Initial Parameters    !
                       ! (Angstroms and Degrees)  !
 ----------------------                            ----------------------
 !      Name          Value   Derivative information (Atomic Units)     !
 ------------------------------------------------------------------------
 !       r1          0.99     estimate D2E/DX2                          !
 !       r2          1.353    estimate D2E/DX2                          !
 !       r3          1.353    estimate D2E/DX2                          !
 !       a1        104.5      estimate D2E/DX2                          !
 !       a2        106.7      estimate D2E/DX2                          !
 !       d1        180.0      estimate D2E/DX2                          !
 ------------------------------------------------------------------------
 Trust Radius=3.00D-01 FncErr=1.00D-07 GrdErr=1.00D-07 EigMax=2.50D+02 EigMin=1.00D-04
 Number of steps in this run=     20 maximum allowed number of steps=    100.
 GradGradGradGradGradGradGradGradGradGradGradGradGradGradGradGradGradGrad

 Leave Link  103 at Tue Jan 18 15:46:28 2022, MaxMem= 16106127360 cpu:               2.2 elap:               0.1
 (Enter /sw/contrib/gaussian/g16/B01/g16/l202.exe)
 ---------------------------------------------------------------------------------------------------
                            Z-MATRIX (ANGSTROMS AND DEGREES)
   CD    Cent   Atom    N1       Length/X        N2       Alpha/Y        N3        Beta/Z          J
 ---------------------------------------------------------------------------------------------------
      1      1  H 
      2      2  O        1   0.990000(     1)
      3      3  N        2   1.353000(     2)      1  104.500(     4)
      4      4  O        3   1.353000(     3)      2  106.700(     5)      1  180.000(     6)      0
 ---------------------------------------------------------------------------------------------------
                         Z-Matrix orientation:                         
 ---------------------------------------------------------------------
 Center     Atomic      Atomic             Coordinates (Angstroms)
 Number     Number       Type             X           Y           Z
 ---------------------------------------------------------------------
      1          1           0        0.000000    0.000000    0.000000
      2          8           0        0.000000    0.000000    0.990000
      3          7           0        1.309904    0.000000    1.328764
      4          8           0        1.361842    0.000000    2.680767
 ---------------------------------------------------------------------
                    Distance matrix (angstroms):
                    1          2          3          4
     1  H    0.000000
     2  O    0.990000   0.000000
     3  N    1.865868   1.353000   0.000000
     4  O    3.006847   2.171015   1.353000   0.000000
 Stoichiometry    HNO2
 Framework group  CS[SG(HNO2)]
 Deg. of freedom     5
 Full point group                 CS      NOp   2
 Largest Abelian subgroup         CS      NOp   2
 Largest concise Abelian subgroup C1      NOp   1
                         Standard orientation:                         
 ---------------------------------------------------------------------
 Center     Atomic      Atomic             Coordinates (Angstroms)
 Number     Number       Type             X           Y           Z
 ---------------------------------------------------------------------
      1          1           0       -1.811998    0.106542   -0.000000
      2          8           0       -0.961533   -0.400221   -0.000000
      3          7           0       -0.000000    0.551653    0.000000
      4          8           0        1.188033   -0.095794    0.000000
 ---------------------------------------------------------------------
 Rotational constants (GHZ):          78.0127269          12.2941664          10.6204677
 Leave Link  202 at Tue Jan 18 15:46:28 2022, MaxMem= 16106127360 cpu:               2.2 elap:               0.1
 (Enter /sw/contrib/gaussian/g16/B01/g16/l301.exe)
 Standard basis: Aug-CC-pVTZ (5D, 7F)
 Ernie: Thresh=  0.10000D-02 Tol=  0.10000D-05 Strict=F.
 Ernie:  9 primitive shells out of 101 were deleted.
 There are   129 symmetry adapted cartesian basis functions of A'  symmetry.
 There are    61 symmetry adapted cartesian basis functions of A"  symmetry.
 There are   106 symmetry adapted basis functions of A'  symmetry.
 There are    55 symmetry adapted basis functions of A"  symmetry.
   161 basis functions,   243 primitive gaussians,   190 cartesian basis functions
    12 alpha electrons       12 beta electrons
       nuclear repulsion energy        67.0739062262 Hartrees.
 IExCor=    0 DFT=F Ex=HF Corr=None ExCW=0 ScaHFX=  1.000000
 ScaDFX=  1.000000  1.000000  1.000000  1.000000 ScalE2=  1.000000  1.000000
 IRadAn=      5 IRanWt=     -1 IRanGd=            0 ICorTp=0 IEmpDi=  4
 NAtoms=    4 NActive=    4 NUniq=    4 SFac= 1.00D+00 NAtFMM=   60 NAOKFM=F Big=F
 Integral buffers will be    131072 words long.
 Raffenetti 1 integral format.
 Two-electron integral symmetry is turned on.
 Leave Link  301 at Tue Jan 18 15:46:28 2022, MaxMem= 16106127360 cpu:               2.4 elap:               0.1
 (Enter /sw/contrib/gaussian/g16/B01/g16/l302.exe)
 NPDir=0 NMtPBC=     1 NCelOv=     1 NCel=       1 NClECP=     1 NCelD=      1
         NCelK=      1 NCelE2=     1 NClLst=     1 CellRange=     0.0.
 One-electron integrals computed using PRISM.
 One-electron integral symmetry used in STVInt
 NBasis=   161 RedAO= T EigKep=  2.13D-04  NBF=   106    55
 NBsUse=   161 1.00D-06 EigRej= -1.00D+00 NBFU=   106    55
 Leave Link  302 at Tue Jan 18 15:46:28 2022, MaxMem= 16106127360 cpu:               6.6 elap:               0.3
 (Enter /sw/contrib/gaussian/g16/B01/g16/l303.exe)
 DipDrv:  MaxL=1.
 Leave Link  303 at Tue Jan 18 15:46:29 2022, MaxMem= 16106127360 cpu:               2.1 elap:               0.2
 (Enter /sw/contrib/gaussian/g16/B01/g16/l401.exe)
 ExpMin= 2.53D-02 ExpMax= 1.53D+04 ExpMxC= 5.22D+02 IAcc=3 IRadAn=         5 AccDes= 0.00D+00
 Harris functional with IExCor=  205 and IRadAn=       5 diagonalized for initial guess.
 HarFok:  IExCor=  205 AccDes= 0.00D+00 IRadAn=         5 IDoV= 1 UseB2=F ITyADJ=14
 ICtDFT=  3500011 ScaDFX=  1.000000  1.000000  1.000000  1.000000
 FoFCou: FMM=F IPFlag=           0 FMFlag=      100000 FMFlg1=           0
         NFxFlg=           0 DoJE=T BraDBF=F KetDBF=T FulRan=T
         wScrn=  0.000000 ICntrl=       500 IOpCl=  0 I1Cent=   200000004 NGrid=           0
         NMat0=    1 NMatS0=      1 NMatT0=    0 NMatD0=    1 NMtDS0=    0 NMtDT0=    0
 Petite list used in FoFCou.
 Harris En= -204.795650311667    
 JPrj=0 DoOrth=F DoCkMO=F.
 Initial guess orbital symmetries:
       Occupied  (A') (A') (A') (A') (A') (A') (A') (A') (A") (A')
                 (A") (A')
       Virtual   (A") (A') (A') (A') (A") (A') (A') (A') (A') (A")
                 (A') (A") (A') (A') (A') (A") (A') (A') (A') (A')
                 (A") (A') (A") (A') (A') (A') (A") (A') (A") (A')
                 (A') (A") (A') (A") (A") (A') (A') (A') (A") (A')
                 (A') (A') (A") (A') (A") (A') (A") (A') (A') (A')
                 (A') (A") (A") (A') (A') (A") (A') (A") (A') (A")
                 (A') (A") (A') (A') (A') (A") (A') (A') (A") (A")
                 (A') (A') (A') (A') (A") (A") (A') (A") (A') (A')
                 (A") (A') (A') (A") (A') (A") (A') (A') (A") (A')
                 (A') (A') (A") (A') (A') (A') (A") (A") (A") (A')
                 (A') (A") (A') (A') (A') (A') (A") (A') (A") (A')
                 (A") (A') (A") (A') (A") (A') (A") (A') (A') (A')
                 (A') (A') (A") (A') (A") (A") (A') (A') (A") (A')
                 (A") (A") (A') (A") (A') (A") (A') (A") (A') (A")
                 (A') (A') (A') (A') (A') (A') (A') (A') (A')
 The electronic state of the initial guess is 1-A'.
 Leave Link  401 at Tue Jan 18 15:46:29 2022, MaxMem= 16106127360 cpu:              11.2 elap:               0.6
 (Enter /sw/contrib/gaussian/g16/B01/g16/l502.exe)
 Keep R1 ints in memory in symmetry-blocked form, NReq=128070121.
 FoFCou: FMM=F IPFlag=           0 FMFlag=           0 FMFlg1=           0
         NFxFlg=           0 DoJE=F BraDBF=F KetDBF=F FulRan=T
         wScrn=  0.000000 ICntrl=       600 IOpCl=  0 I1Cent=           0 NGrid=           0
         NMat0=    1 NMatS0=  13041 NMatT0=    0 NMatD0=    1 NMtDS0=    0 NMtDT0=    0
 Petite list used in FoFCou.
 Closed shell SCF:
 Using DIIS extrapolation, IDIIS=  1040.
 NGot= 16106127360 LenX= 16063019402 LenY= 16062982861
 Requested convergence on RMS density matrix=1.00D-08 within 128 cycles.
 Requested convergence on MAX density matrix=1.00D-06.
 Requested convergence on             energy=1.00D-06.
 No special actions if energy rises.

 Cycle   1  Pass 1  IDiag  1:
 E= -204.529408191742    
 DIIS: error= 3.06D-02 at cycle   1 NSaved=   1.
 NSaved= 1 IEnMin= 1 EnMin= -204.529408191742     IErMin= 1 ErrMin= 3.06D-02
 ErrMax= 3.06D-02  0.00D+00 EMaxC= 1.00D-01 BMatC= 3.85D-01 BMatP= 3.85D-01
 IDIUse=3 WtCom= 6.94D-01 WtEn= 3.06D-01
 Coeff-Com:  0.100D+01
 Coeff-En:   0.100D+01
 Coeff:      0.100D+01
 Gap=     0.415 Goal=   None    Shift=    0.000
 GapD=    0.415 DampG=2.000 DampE=0.500 DampFc=1.0000 IDamp=-1.
 RMSDP=2.44D-03 MaxDP=1.25D-01              OVMax= 2.11D-01

 Cycle   2  Pass 1  IDiag  1:
 E= -204.556524658186     Delta-E=       -0.027116466444 Rises=F Damp=F
 DIIS: error= 2.81D-02 at cycle   2 NSaved=   2.
 NSaved= 2 IEnMin= 2 EnMin= -204.556524658186     IErMin= 2 ErrMin= 2.81D-02
 ErrMax= 2.81D-02  0.00D+00 EMaxC= 1.00D-01 BMatC= 1.65D-01 BMatP= 3.85D-01
 IDIUse=3 WtCom= 7.19D-01 WtEn= 2.81D-01
 Coeff-Com:  0.358D+00 0.642D+00
 Coeff-En:   0.431D+00 0.569D+00
 Coeff:      0.379D+00 0.621D+00
 Gap=     0.520 Goal=   None    Shift=    0.000
 RMSDP=1.36D-03 MaxDP=4.15D-02 DE=-2.71D-02 OVMax= 1.24D-01

 Cycle   3  Pass 1  IDiag  1:
 E= -204.656526888931     Delta-E=       -0.100002230745 Rises=F Damp=F
 DIIS: error= 1.16D-02 at cycle   3 NSaved=   3.
 NSaved= 3 IEnMin= 3 EnMin= -204.656526888931     IErMin= 3 ErrMin= 1.16D-02
 ErrMax= 1.16D-02  0.00D+00 EMaxC= 1.00D-01 BMatC= 1.98D-02 BMatP= 1.65D-01
 IDIUse=3 WtCom= 8.84D-01 WtEn= 1.16D-01
 Coeff-Com: -0.357D-01 0.237D+00 0.799D+00
 Coeff-En:   0.000D+00 0.269D-01 0.973D+00
 Coeff:     -0.315D-01 0.213D+00 0.819D+00
 Gap=     0.508 Goal=   None    Shift=    0.000
 RMSDP=4.94D-04 MaxDP=2.30D-02 DE=-1.00D-01 OVMax= 5.41D-02

 Cycle   4  Pass 1  IDiag  1:
 E= -204.670660083847     Delta-E=       -0.014133194917 Rises=F Damp=F
 DIIS: error= 2.20D-03 at cycle   4 NSaved=   4.
 NSaved= 4 IEnMin= 4 EnMin= -204.670660083847     IErMin= 4 ErrMin= 2.20D-03
 ErrMax= 2.20D-03  0.00D+00 EMaxC= 1.00D-01 BMatC= 9.20D-04 BMatP= 1.98D-02
 IDIUse=3 WtCom= 9.78D-01 WtEn= 2.20D-02
 Coeff-Com: -0.183D-01 0.460D-01 0.275D+00 0.697D+00
 Coeff-En:   0.000D+00 0.000D+00 0.000D+00 0.100D+01
 Coeff:     -0.179D-01 0.450D-01 0.269D+00 0.704D+00
 Gap=     0.507 Goal=   None    Shift=    0.000
 RMSDP=1.04D-04 MaxDP=2.56D-03 DE=-1.41D-02 OVMax= 9.51D-03

 Cycle   5  Pass 1  IDiag  1:
 E= -204.671445252417     Delta-E=       -0.000785168570 Rises=F Damp=F
 DIIS: error= 1.11D-03 at cycle   5 NSaved=   5.
 NSaved= 5 IEnMin= 5 EnMin= -204.671445252417     IErMin= 5 ErrMin= 1.11D-03
 ErrMax= 1.11D-03  0.00D+00 EMaxC= 1.00D-01 BMatC= 7.70D-05 BMatP= 9.20D-04
 IDIUse=3 WtCom= 9.89D-01 WtEn= 1.11D-02
 Coeff-Com:  0.731D-02-0.451D-01-0.155D+00 0.108D-01 0.118D+01
 Coeff-En:   0.000D+00 0.000D+00 0.000D+00 0.000D+00 0.100D+01
 Coeff:      0.723D-02-0.446D-01-0.153D+00 0.106D-01 0.118D+01
 Gap=     0.507 Goal=   None    Shift=    0.000
 RMSDP=7.50D-05 MaxDP=1.82D-03 DE=-7.85D-04 OVMax= 7.45D-03

 Cycle   6  Pass 1  IDiag  1:
 E= -204.671658913031     Delta-E=       -0.000213660614 Rises=F Damp=F
 DIIS: error= 3.16D-04 at cycle   6 NSaved=   6.
 NSaved= 6 IEnMin= 6 EnMin= -204.671658913031     IErMin= 6 ErrMin= 3.16D-04
 ErrMax= 3.16D-04  0.00D+00 EMaxC= 1.00D-01 BMatC= 9.94D-06 BMatP= 7.70D-05
 IDIUse=3 WtCom= 9.97D-01 WtEn= 3.16D-03
 Coeff-Com:  0.325D-03 0.376D-02 0.213D-02-0.119D+00-0.166D+00 0.128D+01
 Coeff-En:   0.000D+00 0.000D+00 0.000D+00 0.000D+00 0.000D+00 0.100D+01
 Coeff:      0.324D-03 0.375D-02 0.212D-02-0.118D+00-0.165D+00 0.128D+01
 Gap=     0.509 Goal=   None    Shift=    0.000
 RMSDP=3.34D-05 MaxDP=6.75D-04 DE=-2.14D-04 OVMax= 3.02D-03

 Cycle   7  Pass 1  IDiag  1:
 E= -204.671690399423     Delta-E=       -0.000031486392 Rises=F Damp=F
 DIIS: error= 1.06D-04 at cycle   7 NSaved=   7.
 NSaved= 7 IEnMin= 7 EnMin= -204.671690399423     IErMin= 7 ErrMin= 1.06D-04
 ErrMax= 1.06D-04  0.00D+00 EMaxC= 1.00D-01 BMatC= 8.81D-07 BMatP= 9.94D-06
 IDIUse=3 WtCom= 9.99D-01 WtEn= 1.06D-03
 Coeff-Com: -0.668D-03 0.446D-02 0.164D-01 0.301D-02-0.110D+00-0.724D-01
 Coeff-Com:  0.116D+01
 Coeff-En:   0.000D+00 0.000D+00 0.000D+00 0.000D+00 0.000D+00 0.000D+00
 Coeff-En:   0.100D+01
 Coeff:     -0.667D-03 0.446D-02 0.164D-01 0.301D-02-0.110D+00-0.723D-01
 Coeff:      0.116D+01
 Gap=     0.509 Goal=   None    Shift=    0.000
 RMSDP=9.51D-06 MaxDP=2.73D-04 DE=-3.15D-05 OVMax= 9.89D-04

 Cycle   8  Pass 1  IDiag  1:
 E= -204.671693424635     Delta-E=       -0.000003025212 Rises=F Damp=F
 DIIS: error= 2.94D-05 at cycle   8 NSaved=   8.
 NSaved= 8 IEnMin= 8 EnMin= -204.671693424635     IErMin= 8 ErrMin= 2.94D-05
 ErrMax= 2.94D-05  0.00D+00 EMaxC= 1.00D-01 BMatC= 1.23D-07 BMatP= 8.81D-07
 IDIUse=1 WtCom= 1.00D+00 WtEn= 0.00D+00
 Coeff-Com: -0.106D-03-0.123D-03 0.959D-03 0.145D-01 0.178D-01-0.162D+00
 Coeff-Com: -0.322D-01 0.116D+01
 Coeff:     -0.106D-03-0.123D-03 0.959D-03 0.145D-01 0.178D-01-0.162D+00
 Coeff:     -0.322D-01 0.116D+01
 Gap=     0.509 Goal=   None    Shift=    0.000
 RMSDP=3.78D-06 MaxDP=1.07D-04 DE=-3.03D-06 OVMax= 3.67D-04

 Cycle   9  Pass 1  IDiag  1:
 E= -204.671693865502     Delta-E=       -0.000000440867 Rises=F Damp=F
 DIIS: error= 1.63D-05 at cycle   9 NSaved=   9.
 NSaved= 9 IEnMin= 9 EnMin= -204.671693865502     IErMin= 9 ErrMin= 1.63D-05
 ErrMax= 1.63D-05  0.00D+00 EMaxC= 1.00D-01 BMatC= 2.08D-08 BMatP= 1.23D-07
 IDIUse=1 WtCom= 1.00D+00 WtEn= 0.00D+00
 Coeff-Com:  0.837D-04-0.405D-03-0.155D-02-0.618D-02 0.775D-02 0.600D-01
 Coeff-Com: -0.114D+00-0.396D+00 0.145D+01
 Coeff:      0.837D-04-0.405D-03-0.155D-02-0.618D-02 0.775D-02 0.600D-01
 Coeff:     -0.114D+00-0.396D+00 0.145D+01
 Gap=     0.509 Goal=   None    Shift=    0.000
 RMSDP=1.65D-06 MaxDP=3.69D-05 DE=-4.41D-07 OVMax= 1.70D-04

 Cycle  10  Pass 1  IDiag  1:
 E= -204.671693945921     Delta-E=       -0.000000080419 Rises=F Damp=F
 DIIS: error= 6.69D-06 at cycle  10 NSaved=  10.
 NSaved=10 IEnMin=10 EnMin= -204.671693945921     IErMin=10 ErrMin= 6.69D-06
 ErrMax= 6.69D-06  0.00D+00 EMaxC= 1.00D-01 BMatC= 4.18D-09 BMatP= 2.08D-08
 IDIUse=1 WtCom= 1.00D+00 WtEn= 0.00D+00
 Coeff-Com: -0.446D-04 0.260D-03 0.115D-02 0.886D-03-0.777D-02-0.106D-01
 Coeff-Com:  0.757D-01 0.409D-01-0.727D+00 0.163D+01
 Coeff:     -0.446D-04 0.260D-03 0.115D-02 0.886D-03-0.777D-02-0.106D-01
 Coeff:      0.757D-01 0.409D-01-0.727D+00 0.163D+01
 Gap=     0.509 Goal=   None    Shift=    0.000
 RMSDP=7.94D-07 MaxDP=2.39D-05 DE=-8.04D-08 OVMax= 1.03D-04

 Cycle  11  Pass 1  IDiag  1:
 E= -204.671693965384     Delta-E=       -0.000000019463 Rises=F Damp=F
 DIIS: error= 2.89D-06 at cycle  11 NSaved=  11.
 NSaved=11 IEnMin=11 EnMin= -204.671693965384     IErMin=11 ErrMin= 2.89D-06
 ErrMax= 2.89D-06  0.00D+00 EMaxC= 1.00D-01 BMatC= 9.22D-10 BMatP= 4.18D-09
 IDIUse=1 WtCom= 1.00D+00 WtEn= 0.00D+00
 Coeff-Com:  0.976D-06-0.507D-04-0.908D-04 0.871D-03 0.254D-02-0.866D-02
 Coeff-Com: -0.178D-01 0.857D-01 0.450D-01-0.931D+00 0.182D+01
 Coeff:      0.976D-06-0.507D-04-0.908D-04 0.871D-03 0.254D-02-0.866D-02
 Coeff:     -0.178D-01 0.857D-01 0.450D-01-0.931D+00 0.182D+01
 Gap=     0.509 Goal=   None    Shift=    0.000
 RMSDP=5.13D-07 MaxDP=1.71D-05 DE=-1.95D-08 OVMax= 7.05D-05

 Cycle  12  Pass 1  IDiag  1:
 E= -204.671693970646     Delta-E=       -0.000000005262 Rises=F Damp=F
 DIIS: error= 7.79D-07 at cycle  12 NSaved=  12.
 NSaved=12 IEnMin=12 EnMin= -204.671693970646     IErMin=12 ErrMin= 7.79D-07
 ErrMax= 7.79D-07  0.00D+00 EMaxC= 1.00D-01 BMatC= 1.06D-10 BMatP= 9.22D-10
 IDIUse=1 WtCom= 1.00D+00 WtEn= 0.00D+00
 Coeff-Com:  0.506D-05-0.286D-04-0.102D-03-0.466D-03 0.592D-03 0.357D-02
 Coeff-Com: -0.628D-02-0.291D-01 0.935D-01 0.228D-01-0.542D+00 0.146D+01
 Coeff:      0.506D-05-0.286D-04-0.102D-03-0.466D-03 0.592D-03 0.357D-02
 Coeff:     -0.628D-02-0.291D-01 0.935D-01 0.228D-01-0.542D+00 0.146D+01
 Gap=     0.509 Goal=   None    Shift=    0.000
 RMSDP=1.58D-07 MaxDP=4.62D-06 DE=-5.26D-09 OVMax= 1.99D-05

 Cycle  13  Pass 1  IDiag  1:
 E= -204.671693971019     Delta-E=       -0.000000000373 Rises=F Damp=F
 DIIS: error= 7.97D-08 at cycle  13 NSaved=  13.
 NSaved=13 IEnMin=13 EnMin= -204.671693971019     IErMin=13 ErrMin= 7.97D-08
 ErrMax= 7.97D-08  0.00D+00 EMaxC= 1.00D-01 BMatC= 1.17D-12 BMatP= 1.06D-10
 IDIUse=1 WtCom= 1.00D+00 WtEn= 0.00D+00
 Coeff-Com: -0.399D-06 0.360D-05 0.115D-04 0.127D-04-0.149D-03-0.434D-04
 Coeff-Com:  0.158D-02-0.660D-03-0.106D-01 0.332D-01-0.121D-01-0.175D+00
 Coeff-Com:  0.116D+01
 Coeff:     -0.399D-06 0.360D-05 0.115D-04 0.127D-04-0.149D-03-0.434D-04
 Coeff:      0.158D-02-0.660D-03-0.106D-01 0.332D-01-0.121D-01-0.175D+00
 Coeff:      0.116D+01
 Gap=     0.509 Goal=   None    Shift=    0.000
 RMSDP=1.45D-08 MaxDP=3.30D-07 DE=-3.73D-10 OVMax= 1.31D-06

 Cycle  14  Pass 1  IDiag  1:
 E= -204.671693971023     Delta-E=       -0.000000000004 Rises=F Damp=F
 DIIS: error= 1.93D-08 at cycle  14 NSaved=  14.
 NSaved=14 IEnMin=14 EnMin= -204.671693971023     IErMin=14 ErrMin= 1.93D-08
 ErrMax= 1.93D-08  0.00D+00 EMaxC= 1.00D-01 BMatC= 5.50D-14 BMatP= 1.17D-12
 IDIUse=1 WtCom= 1.00D+00 WtEn= 0.00D+00
 Coeff-Com:  0.338D-07-0.300D-06-0.130D-05 0.106D-04 0.233D-04-0.670D-04
 Coeff-Com: -0.229D-03 0.737D-03 0.719D-04-0.687D-02 0.172D-01-0.123D-01
 Coeff-Com: -0.244D+00 0.125D+01
 Coeff:      0.338D-07-0.300D-06-0.130D-05 0.106D-04 0.233D-04-0.670D-04
 Coeff:     -0.229D-03 0.737D-03 0.719D-04-0.687D-02 0.172D-01-0.123D-01
 Coeff:     -0.244D+00 0.125D+01
 Gap=     0.509 Goal=   None    Shift=    0.000
 RMSDP=3.14D-09 MaxDP=9.86D-08 DE=-3.69D-12 OVMax= 1.83D-07

 SCF Done:  E(RHF) =  -204.671693971     A.U. after   14 cycles
            NFock= 14  Conv=0.31D-08     -V/T= 2.0044
 KE= 2.037847858754D+02 PE=-6.177730386872D+02 EE= 1.422426526145D+02
 Leave Link  502 at Tue Jan 18 15:46:31 2022, MaxMem= 16106127360 cpu:              35.3 elap:               1.8
 (Enter /sw/contrib/gaussian/g16/B01/g16/l801.exe)
 ExpMin= 2.53D-02 ExpMax= 1.53D+04 ExpMxC= 5.22D+02 IAcc=3 IRadAn=         5 AccDes= 0.00D+00
 HarFok:  IExCor=  205 AccDes= 0.00D+00 IRadAn=         5 IDoV=-2 UseB2=F ITyADJ=14
 ICtDFT= 12500011 ScaDFX=  1.000000  1.000000  1.000000  1.000000
 Largest valence mixing into a core orbital is  2.14D-04
 Largest core mixing into a valence orbital is  3.36D-05
 Range of M.O.s used for correlation:     4   161
 NBasis=   161 NAE=    12 NBE=    12 NFC=     3 NFV=     0
 NROrb=    158 NOA=     9 NOB=     9 NVA=   149 NVB=   149

 **** Warning!!: The largest alpha MO coefficient is  0.19299394D+02

 Leave Link  801 at Tue Jan 18 15:46:31 2022, MaxMem= 16106127360 cpu:               3.5 elap:               0.2
 (Enter /sw/contrib/gaussian/g16/B01/g16/l906.exe)
 Frozen-core derivative calculation, NFC=   3 NFV=   0.
 FulOut=F Deriv=T AODrv=T NAtomX=     4
   MMem=         161  MDisk=           9 MDiskD=           9
  W3Min=      367080 MinDsk=      792425 NBas6D=         190
 NBas2D=       18625    NTT=       18145    LW2=     3500000
    MDV= 16105787920 MDiskM=      423783 NBas2p=       18624
 Fully direct method using O(ONN) memory.
 IMap=   1   2   3   4   5   6   7   8   9  10  11  12
 JobTyp=1 Pass  1:  I=   4 to  12 NPSUse= 28 ParTrn=T ParDer=T DoDerP=T.
 Spin components of T(2) and E(2):
     alpha-alpha T2 =       0.2864602542D-01 E2=     -0.9420402368D-01
     alpha-beta  T2 =       0.1551338724D+00 E2=     -0.5345417789D+00
     beta-beta   T2 =       0.2864602542D-01 E2=     -0.9420402368D-01
 The integrals were generated   1 times.
 ANorm=    0.1101102140D+01
 E2 =    -0.7229498263D+00 EUMP2 =    -0.20539464379728D+03
 Leave Link  906 at Tue Jan 18 15:46:39 2022, MaxMem= 16106127360 cpu:             215.5 elap:               7.8
 (Enter /sw/contrib/gaussian/g16/B01/g16/l1002.exe)
 Minotr:  Closed shell wavefunction.
          Computing MP2/KS-MP2 derivatives.
          Using Z-Vector for PSCF gradient.
          Skipping F1 and S1 gradient terms here.
          IDoAtm=1111
          Frozen-core window.
          Direct CPHF calculation.
          Differentiating once with respect to electric field.
                with respect to dipole field.
          Differentiating once with respect to nuclear coordinates.
          Using symmetry in CPHF.
          Requested convergence is 1.0D-10 RMS, and 1.0D-09 maximum.
          NewPWx=F KeepS1=T KeepF1=T KeepIn=T MapXYZ=F SortEE=F KeepMc=T.
 Keep R1 ints in memory in symmetry-blocked form, NReq=128071145.
 FoFCou: FMM=F IPFlag=           0 FMFlag=           0 FMFlg1=           0
         NFxFlg=           0 DoJE=F BraDBF=F KetDBF=F FulRan=T
         wScrn=  0.000000 ICntrl=       600 IOpCl=  0 I1Cent=           0 NGrid=           0
         NMat0=    1 NMatS0=  13041 NMatT0=    0 NMatD0=    1 NMtDS0=    0 NMtDT0=    0
 Petite list used in FoFCou.
          MDV=   16106127360 using IRadAn=       5.
          Solving linear equations separately, MaxMat=       0.
          There are     1 degrees of freedom in the 1st order CPHF.  IDoFFX=0 NUNeed=     1.
 LinEq1:  Iter=  0 NonCon=     1 RMS=8.02D-03 Max=2.06D-01 NDo=     1
 AX will form     1 AO Fock derivatives at one time.
 LinEq1:  Iter=  1 NonCon=     1 RMS=3.06D-03 Max=3.68D-02 NDo=     1
 LinEq1:  Iter=  2 NonCon=     1 RMS=1.73D-03 Max=3.74D-02 NDo=     1
 LinEq1:  Iter=  3 NonCon=     1 RMS=8.24D-04 Max=8.14D-03 NDo=     1
 LinEq1:  Iter=  4 NonCon=     1 RMS=3.51D-04 Max=8.86D-03 NDo=     1
 LinEq1:  Iter=  5 NonCon=     1 RMS=1.53D-04 Max=1.57D-03 NDo=     1
 LinEq1:  Iter=  6 NonCon=     1 RMS=6.24D-05 Max=8.29D-04 NDo=     1
 LinEq1:  Iter=  7 NonCon=     1 RMS=1.47D-05 Max=1.00D-04 NDo=     1
 LinEq1:  Iter=  8 NonCon=     1 RMS=2.89D-06 Max=2.34D-05 NDo=     1
 LinEq1:  Iter=  9 NonCon=     1 RMS=4.91D-07 Max=3.45D-06 NDo=     1
 LinEq1:  Iter= 10 NonCon=     1 RMS=8.51D-08 Max=5.99D-07 NDo=     1
 LinEq1:  Iter= 11 NonCon=     1 RMS=1.35D-08 Max=1.23D-07 NDo=     1
 LinEq1:  Iter= 12 NonCon=     1 RMS=1.67D-09 Max=1.34D-08 NDo=     1
 LinEq1:  Iter= 13 NonCon=     1 RMS=2.43D-10 Max=2.46D-09 NDo=     1
 LinEq1:  Iter= 14 NonCon=     0 RMS=3.52D-11 Max=3.56D-10 NDo=     1
 Linear equations converged to 1.000D-10 1.000D-09 after    14 iterations.
 End of Minotr F.D. properties file   721 does not exist.
 End of Minotr F.D. properties file   722 does not exist.
 End of Minotr F.D. properties file   788 does not exist.
 Leave Link 1002 at Tue Jan 18 15:46:42 2022, MaxMem= 16106127360 cpu:              39.6 elap:               2.2
 (Enter /sw/contrib/gaussian/g16/B01/g16/l601.exe)
 Copying SCF densities to generalized density rwf, IOpCl= 0 IROHF=0.

 **********************************************************************

            Population analysis using the MP2 Density.

 **********************************************************************

 Orbital symmetries:
       Occupied  (A') (A') (A') (A') (A') (A') (A') (A') (A") (A')
                 (A") (A')
       Virtual   (A') (A") (A') (A') (A") (A') (A') (A') (A") (A')
                 (A") (A') (A') (A") (A') (A') (A') (A') (A') (A')
                 (A") (A') (A") (A') (A') (A') (A") (A") (A') (A')
                 (A") (A') (A') (A") (A") (A') (A') (A') (A") (A')
                 (A') (A') (A') (A") (A") (A') (A") (A') (A') (A')
                 (A") (A') (A") (A') (A') (A") (A') (A") (A') (A")
                 (A') (A") (A') (A') (A') (A') (A") (A') (A") (A")
                 (A') (A') (A") (A') (A") (A') (A') (A') (A") (A')
                 (A') (A") (A') (A") (A') (A") (A') (A') (A") (A')
                 (A') (A') (A') (A") (A') (A') (A") (A") (A") (A')
                 (A') (A") (A') (A') (A') (A") (A') (A') (A") (A')
                 (A") (A') (A") (A') (A") (A') (A") (A') (A') (A')
                 (A') (A') (A") (A') (A") (A") (A') (A') (A") (A")
                 (A') (A") (A") (A') (A') (A") (A') (A') (A") (A")
                 (A') (A') (A') (A') (A') (A') (A') (A') (A')
 The electronic state is 1-A'.
 Alpha  occ. eigenvalues --  -20.68750 -20.64054 -15.81642  -1.54658  -1.36465
 Alpha  occ. eigenvalues --   -0.98124  -0.78366  -0.70253  -0.66890  -0.58098
 Alpha  occ. eigenvalues --   -0.49054  -0.48793
 Alpha virt. eigenvalues --    0.02090   0.04084   0.09478   0.10071   0.12858
 Alpha virt. eigenvalues --    0.13393   0.15646   0.16751   0.18437   0.20008
 Alpha virt. eigenvalues --    0.20707   0.23871   0.25535   0.28806   0.31705
 Alpha virt. eigenvalues --    0.32208   0.36136   0.38618   0.41360   0.44167
 Alpha virt. eigenvalues --    0.53426   0.54416   0.56161   0.57397   0.62953
 Alpha virt. eigenvalues --    0.64266   0.69581   0.72644   0.72690   0.73739
 Alpha virt. eigenvalues --    0.76653   0.77887   0.79931   0.80749   0.84536
 Alpha virt. eigenvalues --    0.86356   0.90973   0.92025   0.93242   0.97515
 Alpha virt. eigenvalues --    1.03065   1.04365   1.08185   1.09856   1.14448
 Alpha virt. eigenvalues --    1.19505   1.23581   1.24528   1.34507   1.44344
 Alpha virt. eigenvalues --    1.48279   1.49452   1.53050   1.53161   1.57646
 Alpha virt. eigenvalues --    1.59115   1.64039   1.72936   1.73473   1.83917
 Alpha virt. eigenvalues --    1.85686   1.91751   1.93222   2.05710   2.09625
 Alpha virt. eigenvalues --    2.11109   2.12628   2.16151   2.26533   2.30806
 Alpha virt. eigenvalues --    2.33213   2.33497   2.44158   2.45430   2.47052
 Alpha virt. eigenvalues --    2.47462   2.48342   2.49665   2.50147   2.57720
 Alpha virt. eigenvalues --    2.58410   2.59383   2.69907   2.74613   2.84571
 Alpha virt. eigenvalues --    2.90144   3.06937   3.10726   3.11507   3.14178
 Alpha virt. eigenvalues --    3.19589   3.35966   3.76627   3.81637   3.98100
 Alpha virt. eigenvalues --    4.01701   4.13612   4.21620   4.32372   4.33033
 Alpha virt. eigenvalues --    4.47469   4.48317   4.69426   4.81488   4.86124
 Alpha virt. eigenvalues --    4.90615   4.91379   5.00136   5.01346   5.03993
 Alpha virt. eigenvalues --    5.05743   5.17454   5.19326   5.22730   5.32756
 Alpha virt. eigenvalues --    5.47533   5.50702   5.62259   5.77374   6.00880
 Alpha virt. eigenvalues --    6.14297   6.43152   6.53879   6.54338   6.65051
 Alpha virt. eigenvalues --    6.68596   6.70578   6.77231   6.88282   7.01921
 Alpha virt. eigenvalues --    7.04949   7.09558   7.11069   7.13426   7.16850
 Alpha virt. eigenvalues --    7.20963   7.29892   7.39058   7.42130   7.44550
 Alpha virt. eigenvalues --    7.47798   7.60484   7.68042   7.99658   8.14872
 Alpha virt. eigenvalues --    8.34700  12.48201  13.47218  15.04821
          Condensed to atoms (all electrons):
               1          2          3          4
     1  H    0.571671   0.183518  -0.051977   0.014233
     2  O    0.183518   8.187420  -0.122836  -0.055251
     3  N   -0.051977  -0.122836   7.004564   0.052617
     4  O    0.014233  -0.055251   0.052617   8.195738
 Mulliken charges:
               1
     1  H    0.282555
     2  O   -0.192851
     3  N    0.117632
     4  O   -0.207336
 Sum of Mulliken charges =  -0.00000
 Mulliken charges with hydrogens summed into heavy atoms:
               1
     2  O    0.089704
     3  N    0.117632
     4  O   -0.207336
 Electronic spatial extent (au):  <R**2>=            127.0528
 Charge=             -0.0000 electrons
 Dipole moment (field-independent basis, Debye):
    X=             -2.7579    Y=              0.5425    Z=             -0.0000  Tot=              2.8108
 Quadrupole moment (field-independent basis, Debye-Ang):
   XX=            -13.2971   YY=            -18.6052   ZZ=            -16.6625
   XY=             -1.1599   XZ=             -0.0000   YZ=             -0.0000
 Traceless Quadrupole moment (field-independent basis, Debye-Ang):
   XX=              2.8912   YY=             -2.4169   ZZ=             -0.4742
   XY=             -1.1599   XZ=             -0.0000   YZ=             -0.0000
 Octapole moment (field-independent basis, Debye-Ang**2):
  XXX=            -13.6024  YYY=             -2.0952  ZZZ=              0.0000  XYY=             -0.2401
  XXY=              0.6155  XXZ=             -0.0000  XZZ=              0.3129  YZZ=             -0.3594
  YYZ=             -0.0000  XYZ=              0.0000
 Hexadecapole moment (field-independent basis, Debye-Ang**3):
 XXXX=            -79.3166 YYYY=            -34.1325 ZZZZ=            -14.1711 XXXY=             -7.7724
 XXXZ=             -0.0000 YYYX=             -4.0226 YYYZ=             -0.0000 ZZZX=             -0.0000
 ZZZY=             -0.0000 XXYY=            -22.3487 XXZZ=            -19.0593 YYZZ=             -7.8219
 XXYZ=             -0.0000 YYXZ=             -0.0000 ZZXY=             -1.7028
 N-N= 6.707390622623D+01 E-N=-6.185205624840D+02  KE= 2.048518763136D+02
 Symmetry A'   KE= 1.960647125262D+02
 Symmetry A"   KE= 8.787163787349D+00
 No NMR shielding tensors so no spin-rotation constants.
 Leave Link  601 at Tue Jan 18 15:46:42 2022, MaxMem= 16106127360 cpu:               9.1 elap:               0.4
 (Enter /sw/contrib/gaussian/g16/B01/g16/l701.exe)
 ... and contract with generalized density number  2.
 Compute integral first derivatives.
 Leave Link  701 at Tue Jan 18 15:46:43 2022, MaxMem= 16106127360 cpu:               6.7 elap:               0.3
 (Enter /sw/contrib/gaussian/g16/B01/g16/l702.exe)
 L702 exits ... SP integral derivatives will be done elsewhere.
 Leave Link  702 at Tue Jan 18 15:46:43 2022, MaxMem= 16106127360 cpu:               0.8 elap:               0.1
 (Enter /sw/contrib/gaussian/g16/B01/g16/l703.exe)
 Integral derivatives from FoFJK, PRISM(SPDF).
 Compute integral first derivatives, UseDBF=F ICtDFT=           0.
 Calling FoFJK, ICntrl=  10002127 FMM=F ISym2X=1 I1Cent= 0 IOpClX= 0 NMat=1 NMatS=1 NMatT=0.
 FoFJK:  IHMeth= 1 ICntrl=10002127 DoSepK=F KAlg= 0 I1Cent=           0 FoldK=F
 IRaf=         0 NMat=       1 IRICut=       1 DoRegI=T DoRafI=F ISym2E= 1 IDoP0=0 IntGTp=1.
 FoFCou: FMM=F IPFlag=           0 FMFlag=      100000 FMFlg1=         800
         NFxFlg=           0 DoJE=F BraDBF=F KetDBF=F FulRan=T
         wScrn=  0.000000 ICntrl=  10002127 IOpCl=  0 I1Cent=           0 NGrid=           0
         NMat0=    1 NMatS0=      1 NMatT0=    0 NMatD0=    1 NMtDS0=    0 NMtDT0=    0
 Petite list used in FoFCou.
 Leave Link  703 at Tue Jan 18 15:46:45 2022, MaxMem= 16106127360 cpu:              33.3 elap:               1.2
 (Enter /sw/contrib/gaussian/g16/B01/g16/l716.exe)
 Dipole        =-1.08504006D+00 2.13446015D-01-7.04152842D-32
 ***** Axes restored to original set *****
 -------------------------------------------------------------------
 Center     Atomic                   Forces (Hartrees/Bohr)
 Number     Number              X              Y              Z
 -------------------------------------------------------------------
      1        1           0.003787573    0.000000000    0.015564442
      2        8          -0.007229699   -0.000000000   -0.017796050
      3        7           0.004463372    0.000000000    0.134840736
      4        8          -0.001021246   -0.000000000   -0.132609128
 -------------------------------------------------------------------
 Cartesian Forces:  Max     0.134840736 RMS     0.055086095
 -----------------------------------------------------------------------------------------------
                       Internal Coordinate Forces (Hartree/Bohr or radian)
  Cent   Atom   N1       Length/X         N2         Alpha/Y        N3         Beta/Z          J
 -----------------------------------------------------------------------------------------------
      1  H 
      2  O        1  -0.015564(     1)
      3  N        2   0.003891(     2)      1  -0.007086(     4)
      4  O        3  -0.132551(     3)      2   0.010406(     5)      1   0.000000(     6)     0
 -----------------------------------------------------------------------------------------------
 Internal  Forces:  Max     0.132550588 RMS     0.054750273
 Force constants in Cartesian coordinates: 
                1             2             3             4             5 
      1  0.457143D-01
      2  0.000000D+00  0.584202D-02
      3  0.000000D+00  0.000000D+00  0.494906D+00
      4 -0.540894D-01  0.000000D+00  0.000000D+00  0.576180D+00
      5  0.000000D+00 -0.567070D-02  0.000000D+00  0.000000D+00  0.550440D-02
      6  0.323840D-01  0.000000D+00 -0.494906D+00  0.842520D-01  0.000000D+00
      7  0.837508D-02  0.000000D+00  0.000000D+00 -0.531659D+00  0.000000D+00
      8  0.000000D+00 -0.449205D-02  0.000000D+00  0.000000D+00  0.436032D-02
      9 -0.323840D-01  0.000000D+00  0.000000D+00 -0.838845D-01  0.000000D+00
     10  0.000000D+00  0.000000D+00  0.000000D+00  0.956811D-02  0.000000D+00
     11  0.000000D+00  0.432073D-02  0.000000D+00  0.000000D+00 -0.419402D-02
     12  0.000000D+00  0.000000D+00  0.000000D+00 -0.367570D-03  0.000000D+00
                6             7             8             9            10 
      6  0.587788D+00
      7 -0.796389D-01  0.571840D+00
      8  0.000000D+00  0.000000D+00  0.345403D-02
      9 -0.943032D-01  0.986674D-01  0.000000D+00  0.638859D+00
     10 -0.369971D-01 -0.485558D-01  0.000000D+00  0.176011D-01  0.389877D-01
     11  0.000000D+00  0.000000D+00 -0.332230D-02  0.000000D+00  0.000000D+00
     12  0.142129D-02 -0.190284D-01  0.000000D+00 -0.544556D+00  0.193960D-01
               11            12 
     11  0.319559D-02
     12  0.000000D+00  0.543135D+00
 Force constants in internal coordinates: 
                1             2             3             4             5 
      1  0.494906D+00
      2  0.000000D+00  0.543880D+00
      3  0.000000D+00  0.000000D+00  0.543880D+00
      4  0.000000D+00  0.000000D+00  0.000000D+00  0.160000D+00
      5  0.000000D+00  0.000000D+00  0.000000D+00  0.000000D+00  0.250000D+00
      6  0.000000D+00  0.000000D+00  0.000000D+00  0.000000D+00  0.000000D+00
                6 
      6  0.191652D-01
 Leave Link  716 at Tue Jan 18 15:46:45 2022, MaxMem= 16106127360 cpu:               2.0 elap:               0.1
 (Enter /sw/contrib/gaussian/g16/B01/g16/l103.exe)

 GradGradGradGradGradGradGradGradGradGradGradGradGradGradGradGradGradGrad
 Berny optimization.
 Search for a local minimum.
 Step number   1 out of a maximum of   20
 All quantities printed in internal units (Hartrees-Bohrs-Radians)
 Second derivative matrix not updated -- first step.
 The second derivative matrix:
                          r1        r2        r3        a1        a2
           r1           0.49491
           r2          -0.00000   0.54388
           r3          -0.00000   0.00000   0.54388
           a1          -0.00000  -0.00000  -0.00000   0.16000
           a2           0.00000  -0.00000   0.00000   0.00000   0.25000
           d1          -0.00000  -0.00000  -0.00000  -0.00000  -0.00000
                          d1
           d1           0.01917
 ITU=  0
     Eigenvalues ---    0.01917   0.16000   0.25000   0.49491   0.54388
     Eigenvalues ---    0.54388
 RFO step:  Lambda=-3.16600700D-02 EMin= 1.91652486D-02
 Linear search not attempted -- first point.
 Variable       Old X    -DE/DX   Delta X   Delta X   Delta X     New X
                                 (Linear)    (Quad)   (Total)
    r1        1.87083  -0.01556   0.00000  -0.02956  -0.02956   1.84127
    r2        2.55680   0.00389   0.00000   0.00676   0.00676   2.56356
    r3        2.55680  -0.13255   0.00000  -0.23031  -0.23031   2.32649
    a1        1.82387  -0.00709   0.00000  -0.03697  -0.03697   1.78690
    a2        1.86227   0.01041   0.00000   0.03695   0.03695   1.89921
    d1        3.14159   0.00000   0.00000   0.00000   0.00000   3.14159
         Item               Value     Threshold  Converged?
 Maximum Force            0.132551     0.000450     NO 
 RMS     Force            0.054750     0.000300     NO 
 Maximum Displacement     0.230306     0.001800     NO 
 RMS     Displacement     0.097205     0.001200     NO 
 Predicted change in Energy=-1.672748D-02
 Lowest energy point so far.  Saving SCF results.
 GradGradGradGradGradGradGradGradGradGradGradGradGradGradGradGradGradGrad

 Leave Link  103 at Tue Jan 18 15:46:45 2022, MaxMem= 16106127360 cpu:               2.9 elap:               0.1
 (Enter /sw/contrib/gaussian/g16/B01/g16/l202.exe)
 ---------------------------------------------------------------------------------------------------
                            Z-MATRIX (ANGSTROMS AND DEGREES)
   CD    Cent   Atom    N1       Length/X        N2       Alpha/Y        N3        Beta/Z          J
 ---------------------------------------------------------------------------------------------------
      1      1  H 
      2      2  O        1   0.974358(     1)
      3      3  N        2   1.356578(     2)      1  102.382(     4)
      4      4  O        3   1.231127(     3)      2  108.817(     5)      1  180.000(     6)      0
 ---------------------------------------------------------------------------------------------------
                         Z-Matrix orientation:                         
 ---------------------------------------------------------------------
 Center     Atomic      Atomic             Coordinates (Angstroms)
 Number     Number       Type             X           Y           Z
 ---------------------------------------------------------------------
      1          1           0        0.000000    0.000000    0.000000
      2          8           0        0.000000    0.000000    0.974358
      3          7           0        1.325025    0.000000    1.265241
      4          8           0        1.463008   -0.000000    2.488611
 ---------------------------------------------------------------------
                    Distance matrix (angstroms):
                    1          2          3          4
     1  H    0.000000
     2  O    0.974358   0.000000
     3  N    1.832082   1.356578   0.000000
     4  O    2.886793   2.105553   1.231127   0.000000
 Stoichiometry    HNO2
 Framework group  CS[SG(HNO2)]
 Deg. of freedom     5
 Full point group                 CS      NOp   2
 RotChk:  IX=0 Diff= 2.47D-02
 Largest Abelian subgroup         CS      NOp   2
 Largest concise Abelian subgroup C1      NOp   1
                         Standard orientation:                         
 ---------------------------------------------------------------------
 Center     Atomic      Atomic             Coordinates (Angstroms)
 Number     Number       Type             X           Y           Z
 ---------------------------------------------------------------------
      1          1           0       -1.756334   -0.001819    0.000000
      2          8           0       -0.910725   -0.485885    0.000000
      3          7           0       -0.000000    0.519541    0.000000
      4          8           0        1.130267    0.031514   -0.000000
 ---------------------------------------------------------------------
 Rotational constants (GHZ):          88.8634137          13.0828739          11.4039350
 Leave Link  202 at Tue Jan 18 15:46:45 2022, MaxMem= 16106127360 cpu:               1.0 elap:               0.1
 (Enter /sw/contrib/gaussian/g16/B01/g16/l301.exe)
 Standard basis: Aug-CC-pVTZ (5D, 7F)
 Ernie: Thresh=  0.10000D-02 Tol=  0.10000D-05 Strict=F.
 Ernie:  9 primitive shells out of 101 were deleted.
 There are   129 symmetry adapted cartesian basis functions of A'  symmetry.
 There are    61 symmetry adapted cartesian basis functions of A"  symmetry.
 There are   106 symmetry adapted basis functions of A'  symmetry.
 There are    55 symmetry adapted basis functions of A"  symmetry.
   161 basis functions,   243 primitive gaussians,   190 cartesian basis functions
    12 alpha electrons       12 beta electrons
       nuclear repulsion energy        69.8331335379 Hartrees.
 IExCor=    0 DFT=F Ex=HF Corr=None ExCW=0 ScaHFX=  1.000000
 ScaDFX=  1.000000  1.000000  1.000000  1.000000 ScalE2=  1.000000  1.000000
 IRadAn=      5 IRanWt=     -1 IRanGd=            0 ICorTp=0 IEmpDi=  4
 NAtoms=    4 NActive=    4 NUniq=    4 SFac= 1.00D+00 NAtFMM=   60 NAOKFM=F Big=F
 Integral buffers will be    131072 words long.
 Raffenetti 1 integral format.
 Two-electron integral symmetry is turned on.
 Leave Link  301 at Tue Jan 18 15:46:45 2022, MaxMem= 16106127360 cpu:               1.8 elap:               0.1
 (Enter /sw/contrib/gaussian/g16/B01/g16/l302.exe)
 NPDir=0 NMtPBC=     1 NCelOv=     1 NCel=       1 NClECP=     1 NCelD=      1
         NCelK=      1 NCelE2=     1 NClLst=     1 CellRange=     0.0.
 One-electron integrals computed using PRISM.
 One-electron integral symmetry used in STVInt
 NBasis=   161 RedAO= T EigKep=  1.96D-04  NBF=   106    55
 NBsUse=   161 1.00D-06 EigRej= -1.00D+00 NBFU=   106    55
 Leave Link  302 at Tue Jan 18 15:46:46 2022, MaxMem= 16106127360 cpu:               7.6 elap:               0.3
 (Enter /sw/contrib/gaussian/g16/B01/g16/l303.exe)
 DipDrv:  MaxL=1.
 Leave Link  303 at Tue Jan 18 15:46:46 2022, MaxMem= 16106127360 cpu:               3.5 elap:               0.2
 (Enter /sw/contrib/gaussian/g16/B01/g16/l401.exe)
 Initial guess from the checkpoint file:  "/gscratch/ilahie/mccoygrp/coire_hoono/hono/hono_eq.chk"
 B after Tr=    -0.000000    0.000000    0.000000
         Rot=    0.999015   -0.000000   -0.000000   -0.044371 Ang=  -5.09 deg.
 Guess basis will be translated and rotated to current coordinates.
 JPrj=2 DoOrth=T DoCkMO=T.
 Initial guess orbital symmetries:
       Occupied  (A') (A') (A') (A') (A') (A') (A') (A') (A") (A')
                 (A") (A')
       Virtual   (A') (A") (A') (A') (A") (A') (A') (A') (A") (A')
                 (A") (A') (A') (A") (A') (A') (A') (A') (A') (A')
                 (A") (A') (A") (A') (A') (A') (A") (A") (A') (A')
                 (A") (A') (A') (A") (A") (A') (A') (A') (A") (A')
                 (A') (A') (A') (A") (A") (A') (A") (A') (A') (A')
                 (A") (A') (A") (A') (A') (A") (A') (A") (A') (A")
                 (A') (A") (A') (A') (A') (A') (A") (A') (A") (A")
                 (A') (A') (A") (A') (A") (A') (A') (A') (A") (A')
                 (A') (A") (A') (A") (A') (A") (A') (A') (A") (A')
                 (A') (A') (A') (A") (A') (A') (A") (A") (A") (A')
                 (A') (A") (A') (A') (A') (A") (A') (A') (A") (A')
                 (A") (A') (A") (A') (A") (A') (A") (A') (A') (A')
                 (A') (A') (A") (A') (A") (A") (A') (A') (A") (A")
                 (A') (A") (A") (A') (A') (A") (A') (A') (A") (A")
                 (A') (A') (A') (A') (A') (A') (A') (A') (A')
 The electronic state of the initial guess is 1-A'.
 Generating alternative initial guess.
 ExpMin= 2.53D-02 ExpMax= 1.53D+04 ExpMxC= 5.22D+02 IAcc=3 IRadAn=         5 AccDes= 0.00D+00
 Harris functional with IExCor=  205 and IRadAn=       5 diagonalized for initial guess.
 HarFok:  IExCor=  205 AccDes= 0.00D+00 IRadAn=         5 IDoV= 1 UseB2=F ITyADJ=14
 ICtDFT=  3500011 ScaDFX=  1.000000  1.000000  1.000000  1.000000
 FoFCou: FMM=F IPFlag=           0 FMFlag=      100000 FMFlg1=           0
         NFxFlg=           0 DoJE=T BraDBF=F KetDBF=T FulRan=T
         wScrn=  0.000000 ICntrl=       500 IOpCl=  0 I1Cent=   200000004 NGrid=           0
         NMat0=    1 NMatS0=      1 NMatT0=    0 NMatD0=    1 NMtDS0=    0 NMtDT0=    0
 Petite list used in FoFCou.
 Harris En= -204.815433219575    
 Leave Link  401 at Tue Jan 18 15:46:46 2022, MaxMem= 16106127360 cpu:               7.8 elap:               0.3
 (Enter /sw/contrib/gaussian/g16/B01/g16/l502.exe)
 Keep R1 ints in memory in symmetry-blocked form, NReq=128070121.
 FoFCou: FMM=F IPFlag=           0 FMFlag=           0 FMFlg1=           0
         NFxFlg=           0 DoJE=F BraDBF=F KetDBF=F FulRan=T
         wScrn=  0.000000 ICntrl=       600 IOpCl=  0 I1Cent=           0 NGrid=           0
         NMat0=    1 NMatS0=  13041 NMatT0=    0 NMatD0=    1 NMtDS0=    0 NMtDT0=    0
 Petite list used in FoFCou.
 Closed shell SCF:
 Using DIIS extrapolation, IDIIS=  1040.
 NGot= 16106127360 LenX= 16063019402 LenY= 16062982861
 Requested convergence on RMS density matrix=1.00D-08 within 128 cycles.
 Requested convergence on MAX density matrix=1.00D-06.
 Requested convergence on             energy=1.00D-06.
 No special actions if energy rises.

 Cycle   1  Pass 1  IDiag  1:
 E= -204.703621990046    
 DIIS: error= 6.77D-03 at cycle   1 NSaved=   1.
 NSaved= 1 IEnMin= 1 EnMin= -204.703621990046     IErMin= 1 ErrMin= 6.77D-03
 ErrMax= 6.77D-03  0.00D+00 EMaxC= 1.00D-01 BMatC= 1.22D-02 BMatP= 1.22D-02
 IDIUse=3 WtCom= 9.32D-01 WtEn= 6.77D-02
 Coeff-Com:  0.100D+01
 Coeff-En:   0.100D+01
 Coeff:      0.100D+01
 Gap=     0.532 Goal=   None    Shift=    0.000
 GapD=    0.532 DampG=2.000 DampE=1.000 DampFc=2.0000 IDamp=-1.
 RMSDP=5.40D-04 MaxDP=1.85D-02              OVMax= 2.27D-02

 Cycle   2  Pass 1  IDiag  1:
 E= -204.714912583459     Delta-E=       -0.011290593413 Rises=F Damp=F
 DIIS: error= 2.23D-03 at cycle   2 NSaved=   2.
 NSaved= 2 IEnMin= 2 EnMin= -204.714912583459     IErMin= 2 ErrMin= 2.23D-03
 ErrMax= 2.23D-03  0.00D+00 EMaxC= 1.00D-01 BMatC= 7.87D-04 BMatP= 1.22D-02
 IDIUse=3 WtCom= 9.78D-01 WtEn= 2.23D-02
 Coeff-Com: -0.526D-01 0.105D+01
 Coeff-En:   0.000D+00 0.100D+01
 Coeff:     -0.514D-01 0.105D+01
 Gap=     0.491 Goal=   None    Shift=    0.000
 RMSDP=1.83D-04 MaxDP=4.88D-03 DE=-1.13D-02 OVMax= 1.34D-02

 Cycle   3  Pass 1  IDiag  1:
 E= -204.716049129138     Delta-E=       -0.001136545679 Rises=F Damp=F
 DIIS: error= 1.40D-03 at cycle   3 NSaved=   3.
 NSaved= 3 IEnMin= 3 EnMin= -204.716049129138     IErMin= 3 ErrMin= 1.40D-03
 ErrMax= 1.40D-03  0.00D+00 EMaxC= 1.00D-01 BMatC= 2.15D-04 BMatP= 7.87D-04
 IDIUse=3 WtCom= 9.86D-01 WtEn= 1.40D-02
 Coeff-Com: -0.767D-01 0.244D+00 0.833D+00
 Coeff-En:   0.000D+00 0.000D+00 0.100D+01
 Coeff:     -0.756D-01 0.240D+00 0.835D+00
 Gap=     0.498 Goal=   None    Shift=    0.000
 RMSDP=7.06D-05 MaxDP=2.54D-03 DE=-1.14D-03 OVMax= 5.03D-03

 Cycle   4  Pass 1  IDiag  1:
 E= -204.716269618115     Delta-E=       -0.000220488977 Rises=F Damp=F
 DIIS: error= 6.93D-04 at cycle   4 NSaved=   4.
 NSaved= 4 IEnMin= 4 EnMin= -204.716269618115     IErMin= 4 ErrMin= 6.93D-04
 ErrMax= 6.93D-04  0.00D+00 EMaxC= 1.00D-01 BMatC= 3.14D-05 BMatP= 2.15D-04
 IDIUse=3 WtCom= 9.93D-01 WtEn= 6.93D-03
 Coeff-Com: -0.110D-01-0.685D-01 0.180D+00 0.899D+00
 Coeff-En:   0.000D+00 0.000D+00 0.000D+00 0.100D+01
 Coeff:     -0.110D-01-0.680D-01 0.179D+00 0.900D+00
 Gap=     0.498 Goal=   None    Shift=    0.000
 RMSDP=3.22D-05 MaxDP=1.10D-03 DE=-2.20D-04 OVMax= 4.57D-03

 Cycle   5  Pass 1  IDiag  1:
 E= -204.716329843415     Delta-E=       -0.000060225300 Rises=F Damp=F
 DIIS: error= 3.82D-04 at cycle   5 NSaved=   5.
 NSaved= 5 IEnMin= 5 EnMin= -204.716329843415     IErMin= 5 ErrMin= 3.82D-04
 ErrMax= 3.82D-04  0.00D+00 EMaxC= 1.00D-01 BMatC= 1.18D-05 BMatP= 3.14D-05
 IDIUse=3 WtCom= 9.96D-01 WtEn= 3.82D-03
 Coeff-Com:  0.153D-01-0.517D-01-0.199D+00 0.232D+00 0.100D+01
 Coeff-En:   0.000D+00 0.000D+00 0.000D+00 0.000D+00 0.100D+01
 Coeff:      0.152D-01-0.515D-01-0.198D+00 0.232D+00 0.100D+01
 Gap=     0.497 Goal=   None    Shift=    0.000
 RMSDP=2.24D-05 MaxDP=5.80D-04 DE=-6.02D-05 OVMax= 1.96D-03

 Cycle   6  Pass 1  IDiag  1:
 E= -204.716351123372     Delta-E=       -0.000021279957 Rises=F Damp=F
 DIIS: error= 1.16D-04 at cycle   6 NSaved=   6.
 NSaved= 6 IEnMin= 6 EnMin= -204.716351123372     IErMin= 6 ErrMin= 1.16D-04
 ErrMax= 1.16D-04  0.00D+00 EMaxC= 1.00D-01 BMatC= 1.52D-06 BMatP= 1.18D-05
 IDIUse=3 WtCom= 9.99D-01 WtEn= 1.16D-03
 Coeff-Com: -0.998D-03 0.235D-01-0.237D-01-0.116D+00-0.327D+00 0.144D+01
 Coeff-En:   0.000D+00 0.000D+00 0.000D+00 0.000D+00 0.000D+00 0.100D+01
 Coeff:     -0.997D-03 0.234D-01-0.236D-01-0.116D+00-0.326D+00 0.144D+01
 Gap=     0.498 Goal=   None    Shift=    0.000
 RMSDP=1.33D-05 MaxDP=4.17D-04 DE=-2.13D-05 OVMax= 1.59D-03

 Cycle   7  Pass 1  IDiag  1:
 E= -204.716356743120     Delta-E=       -0.000005619748 Rises=F Damp=F
 DIIS: error= 3.17D-05 at cycle   7 NSaved=   7.
 NSaved= 7 IEnMin= 7 EnMin= -204.716356743120     IErMin= 7 ErrMin= 3.17D-05
 ErrMax= 3.17D-05  0.00D+00 EMaxC= 1.00D-01 BMatC= 2.62D-07 BMatP= 1.52D-06
 IDIUse=1 WtCom= 1.00D+00 WtEn= 0.00D+00
 Coeff-Com: -0.166D-02 0.846D-02 0.196D-01-0.146D-01-0.204D+00 0.924D-01
 Coeff-Com:  0.110D+01
 Coeff:     -0.166D-02 0.846D-02 0.196D-01-0.146D-01-0.204D+00 0.924D-01
 Coeff:      0.110D+01
 Gap=     0.498 Goal=   None    Shift=    0.000
 RMSDP=5.08D-06 MaxDP=1.86D-04 DE=-5.62D-06 OVMax= 5.94D-04

 Cycle   8  Pass 1  IDiag  1:
 E= -204.716357455443     Delta-E=       -0.000000712323 Rises=F Damp=F
 DIIS: error= 1.33D-05 at cycle   8 NSaved=   8.
 NSaved= 8 IEnMin= 8 EnMin= -204.716357455443     IErMin= 8 ErrMin= 1.33D-05
 ErrMax= 1.33D-05  0.00D+00 EMaxC= 1.00D-01 BMatC= 4.20D-08 BMatP= 2.62D-07
 IDIUse=1 WtCom= 1.00D+00 WtEn= 0.00D+00
 Coeff-Com: -0.343D-03-0.261D-02 0.104D-01 0.257D-01-0.131D-01-0.239D+00
 Coeff-Com:  0.316D+00 0.903D+00
 Coeff:     -0.343D-03-0.261D-02 0.104D-01 0.257D-01-0.131D-01-0.239D+00
 Coeff:      0.316D+00 0.903D+00
 Gap=     0.498 Goal=   None    Shift=    0.000
 RMSDP=1.81D-06 MaxDP=5.39D-05 DE=-7.12D-07 OVMax= 1.92D-04

 Cycle   9  Pass 1  IDiag  1:
 E= -204.716357549033     Delta-E=       -0.000000093590 Rises=F Damp=F
 DIIS: error= 3.99D-06 at cycle   9 NSaved=   9.
 NSaved= 9 IEnMin= 9 EnMin= -204.716357549033     IErMin= 9 ErrMin= 3.99D-06
 ErrMax= 3.99D-06  0.00D+00 EMaxC= 1.00D-01 BMatC= 3.00D-09 BMatP= 4.20D-08
 IDIUse=1 WtCom= 1.00D+00 WtEn= 0.00D+00
 Coeff-Com:  0.309D-03-0.117D-02-0.382D-02 0.169D-02 0.270D-01 0.137D-01
 Coeff-Com: -0.192D+00-0.109D+00 0.126D+01
 Coeff:      0.309D-03-0.117D-02-0.382D-02 0.169D-02 0.270D-01 0.137D-01
 Coeff:     -0.192D+00-0.109D+00 0.126D+01
 Gap=     0.498 Goal=   None    Shift=    0.000
 RMSDP=7.03D-07 MaxDP=1.59D-05 DE=-9.36D-08 OVMax= 7.10D-05

 Cycle  10  Pass 1  IDiag  1:
 E= -204.716357558865     Delta-E=       -0.000000009832 Rises=F Damp=F
 DIIS: error= 1.02D-06 at cycle  10 NSaved=  10.
 NSaved=10 IEnMin=10 EnMin= -204.716357558865     IErMin=10 ErrMin= 1.02D-06
 ErrMax= 1.02D-06  0.00D+00 EMaxC= 1.00D-01 BMatC= 1.49D-10 BMatP= 3.00D-09
 IDIUse=1 WtCom= 1.00D+00 WtEn= 0.00D+00
 Coeff-Com: -0.661D-04 0.492D-03 0.404D-03-0.202D-02-0.704D-02 0.107D-01
 Coeff-Com:  0.372D-01-0.336D-01-0.339D+00 0.133D+01
 Coeff:     -0.661D-04 0.492D-03 0.404D-03-0.202D-02-0.704D-02 0.107D-01
 Coeff:      0.372D-01-0.336D-01-0.339D+00 0.133D+01
 Gap=     0.498 Goal=   None    Shift=    0.000
 RMSDP=1.88D-07 MaxDP=6.45D-06 DE=-9.83D-09 OVMax= 1.49D-05

 Cycle  11  Pass 1  IDiag  1:
 E= -204.716357559432     Delta-E=       -0.000000000567 Rises=F Damp=F
 DIIS: error= 4.14D-07 at cycle  11 NSaved=  11.
 NSaved=11 IEnMin=11 EnMin= -204.716357559432     IErMin=11 ErrMin= 4.14D-07
 ErrMax= 4.14D-07  0.00D+00 EMaxC= 1.00D-01 BMatC= 1.27D-11 BMatP= 1.49D-10
 IDIUse=1 WtCom= 1.00D+00 WtEn= 0.00D+00
 Coeff-Com: -0.246D-05-0.491D-04 0.162D-03 0.439D-03 0.624D-04-0.412D-02
 Coeff-Com:  0.359D-02 0.167D-01-0.218D-02-0.359D+00 0.134D+01
 Coeff:     -0.246D-05-0.491D-04 0.162D-03 0.439D-03 0.624D-04-0.412D-02
 Coeff:      0.359D-02 0.167D-01-0.218D-02-0.359D+00 0.134D+01
 Gap=     0.498 Goal=   None    Shift=    0.000
 RMSDP=4.60D-08 MaxDP=1.25D-06 DE=-5.67D-10 OVMax= 3.64D-06

 Cycle  12  Pass 1  IDiag  1:
 E= -204.716357559480     Delta-E=       -0.000000000048 Rises=F Damp=F
 DIIS: error= 1.26D-07 at cycle  12 NSaved=  12.
 NSaved=12 IEnMin=12 EnMin= -204.716357559480     IErMin=12 ErrMin= 1.26D-07
 ErrMax= 1.26D-07  0.00D+00 EMaxC= 1.00D-01 BMatC= 1.11D-12 BMatP= 1.27D-11
 IDIUse=1 WtCom= 1.00D+00 WtEn= 0.00D+00
 Coeff-Com:  0.775D-05-0.379D-04-0.865D-04 0.105D-03 0.693D-03-0.723D-04
 Coeff-Com: -0.439D-02-0.141D-02 0.374D-01-0.382D-01-0.370D+00 0.138D+01
 Coeff:      0.775D-05-0.379D-04-0.865D-04 0.105D-03 0.693D-03-0.723D-04
 Coeff:     -0.439D-02-0.141D-02 0.374D-01-0.382D-01-0.370D+00 0.138D+01
 Gap=     0.498 Goal=   None    Shift=    0.000
 RMSDP=1.21D-08 MaxDP=2.99D-07 DE=-4.81D-11 OVMax= 1.21D-06

 Cycle  13  Pass 1  IDiag  1:
 E= -204.716357559484     Delta-E=       -0.000000000003 Rises=F Damp=F
 DIIS: error= 2.26D-08 at cycle  13 NSaved=  13.
 NSaved=13 IEnMin=13 EnMin= -204.716357559484     IErMin=13 ErrMin= 2.26D-08
 ErrMax= 2.26D-08  0.00D+00 EMaxC= 1.00D-01 BMatC= 4.48D-14 BMatP= 1.11D-12
 IDIUse=1 WtCom= 1.00D+00 WtEn= 0.00D+00
 Coeff-Com: -0.233D-05 0.152D-04 0.164D-04-0.598D-04-0.215D-03 0.260D-03
 Coeff-Com:  0.119D-02-0.732D-03-0.112D-01 0.319D-01 0.399D-01-0.430D+00
 Coeff-Com:  0.137D+01
 Coeff:     -0.233D-05 0.152D-04 0.164D-04-0.598D-04-0.215D-03 0.260D-03
 Coeff:      0.119D-02-0.732D-03-0.112D-01 0.319D-01 0.399D-01-0.430D+00
 Coeff:      0.137D+01
 Gap=     0.498 Goal=   None    Shift=    0.000
 RMSDP=2.71D-09 MaxDP=7.16D-08 DE=-3.41D-12 OVMax= 2.08D-07

 SCF Done:  E(RHF) =  -204.716357559     A.U. after   13 cycles
            NFock= 13  Conv=0.27D-08     -V/T= 2.0027
 KE= 2.041571026081D+02 PE=-6.235495254382D+02 EE= 1.448429317327D+02
 Leave Link  502 at Tue Jan 18 15:46:48 2022, MaxMem= 16106127360 cpu:              37.5 elap:               1.8
 (Enter /sw/contrib/gaussian/g16/B01/g16/l801.exe)
 ExpMin= 2.53D-02 ExpMax= 1.53D+04 ExpMxC= 5.22D+02 IAcc=3 IRadAn=         5 AccDes= 0.00D+00
 HarFok:  IExCor=  205 AccDes= 0.00D+00 IRadAn=         5 IDoV=-2 UseB2=F ITyADJ=14
 ICtDFT= 12500011 ScaDFX=  1.000000  1.000000  1.000000  1.000000
 Largest valence mixing into a core orbital is  2.07D-04
 Largest core mixing into a valence orbital is  3.05D-05
 Range of M.O.s used for correlation:     4   161
 NBasis=   161 NAE=    12 NBE=    12 NFC=     3 NFV=     0
 NROrb=    158 NOA=     9 NOB=     9 NVA=   149 NVB=   149

 **** Warning!!: The largest alpha MO coefficient is  0.18019268D+02

 Leave Link  801 at Tue Jan 18 15:46:48 2022, MaxMem= 16106127360 cpu:               1.9 elap:               0.1
 (Enter /sw/contrib/gaussian/g16/B01/g16/l906.exe)
 Frozen-core derivative calculation, NFC=   3 NFV=   0.
 FulOut=F Deriv=T AODrv=T NAtomX=     4
   MMem=         161  MDisk=           9 MDiskD=           9
  W3Min=      367080 MinDsk=      792425 NBas6D=         190
 NBas2D=       18625    NTT=       18145    LW2=     3500000
    MDV= 16105787332 MDiskM=      423783 NBas2p=       18624
 Fully direct method using O(ONN) memory.
 IMap=   1   2   3   4   5   6   7   8   9  10  11  12
 JobTyp=1 Pass  1:  I=   4 to  12 NPSUse= 28 ParTrn=T ParDer=T DoDerP=T.
 Spin components of T(2) and E(2):
     alpha-alpha T2 =       0.2566399595D-01 E2=     -0.9120266326D-01
     alpha-beta  T2 =       0.1392593393D+00 E2=     -0.5186622884D+00
     beta-beta   T2 =       0.2566399595D-01 E2=     -0.9120266326D-01
 The integrals were generated   1 times.
 ANorm=    0.1091140381D+01
 E2 =    -0.7010676149D+00 EUMP2 =    -0.20541742517443D+03
 Leave Link  906 at Tue Jan 18 15:46:56 2022, MaxMem= 16106127360 cpu:             213.7 elap:               7.7
 (Enter /sw/contrib/gaussian/g16/B01/g16/l1002.exe)
 Minotr:  Closed shell wavefunction.
          Computing MP2/KS-MP2 derivatives.
          Using Z-Vector for PSCF gradient.
          Skipping F1 and S1 gradient terms here.
          IDoAtm=1111
          Frozen-core window.
          Direct CPHF calculation.
          Differentiating once with respect to electric field.
                with respect to dipole field.
          Differentiating once with respect to nuclear coordinates.
          Using symmetry in CPHF.
          Requested convergence is 1.0D-10 RMS, and 1.0D-09 maximum.
          NewPWx=F KeepS1=T KeepF1=T KeepIn=T MapXYZ=F SortEE=F KeepMc=T.
 Keep R1 ints in memory in symmetry-blocked form, NReq=128071145.
 FoFCou: FMM=F IPFlag=           0 FMFlag=           0 FMFlg1=           0
         NFxFlg=           0 DoJE=F BraDBF=F KetDBF=F FulRan=T
         wScrn=  0.000000 ICntrl=       600 IOpCl=  0 I1Cent=           0 NGrid=           0
         NMat0=    1 NMatS0=  13041 NMatT0=    0 NMatD0=    1 NMtDS0=    0 NMtDT0=    0
 Petite list used in FoFCou.
          MDV=   16106127360 using IRadAn=       5.
          Solving linear equations separately, MaxMat=       0.
          There are     1 degrees of freedom in the 1st order CPHF.  IDoFFX=0 NUNeed=     1.
 LinEq1:  Iter=  0 NonCon=     1 RMS=6.61D-03 Max=1.59D-01 NDo=     1
 AX will form     1 AO Fock derivatives at one time.
 LinEq1:  Iter=  1 NonCon=     1 RMS=2.24D-03 Max=4.07D-02 NDo=     1
 LinEq1:  Iter=  2 NonCon=     1 RMS=9.37D-04 Max=1.60D-02 NDo=     1
 LinEq1:  Iter=  3 NonCon=     1 RMS=4.55D-04 Max=8.25D-03 NDo=     1
 LinEq1:  Iter=  4 NonCon=     1 RMS=1.35D-04 Max=1.16D-03 NDo=     1
 LinEq1:  Iter=  5 NonCon=     1 RMS=6.28D-05 Max=7.63D-04 NDo=     1
 LinEq1:  Iter=  6 NonCon=     1 RMS=1.84D-05 Max=1.71D-04 NDo=     1
 LinEq1:  Iter=  7 NonCon=     1 RMS=4.23D-06 Max=4.24D-05 NDo=     1
 LinEq1:  Iter=  8 NonCon=     1 RMS=1.03D-06 Max=1.72D-05 NDo=     1
 LinEq1:  Iter=  9 NonCon=     1 RMS=2.47D-07 Max=3.13D-06 NDo=     1
 LinEq1:  Iter= 10 NonCon=     1 RMS=4.85D-08 Max=3.45D-07 NDo=     1
 LinEq1:  Iter= 11 NonCon=     1 RMS=7.61D-09 Max=6.71D-08 NDo=     1
 LinEq1:  Iter= 12 NonCon=     1 RMS=9.89D-10 Max=7.17D-09 NDo=     1
 LinEq1:  Iter= 13 NonCon=     1 RMS=1.89D-10 Max=2.32D-09 NDo=     1
 LinEq1:  Iter= 14 NonCon=     0 RMS=3.89D-11 Max=2.79D-10 NDo=     1
 Linear equations converged to 1.000D-10 1.000D-09 after    14 iterations.
 End of Minotr F.D. properties file   721 does not exist.
 End of Minotr F.D. properties file   722 does not exist.
 End of Minotr F.D. properties file   788 does not exist.
 Leave Link 1002 at Tue Jan 18 15:46:58 2022, MaxMem= 16106127360 cpu:              34.2 elap:               1.8
 (Enter /sw/contrib/gaussian/g16/B01/g16/l701.exe)
 ... and contract with generalized density number  2.
 Compute integral first derivatives.
 Leave Link  701 at Tue Jan 18 15:46:58 2022, MaxMem= 16106127360 cpu:               5.5 elap:               0.2
 (Enter /sw/contrib/gaussian/g16/B01/g16/l702.exe)
 L702 exits ... SP integral derivatives will be done elsewhere.
 Leave Link  702 at Tue Jan 18 15:46:58 2022, MaxMem= 16106127360 cpu:               1.3 elap:               0.1
 (Enter /sw/contrib/gaussian/g16/B01/g16/l703.exe)
 Integral derivatives from FoFJK, PRISM(SPDF).
 Compute integral first derivatives, UseDBF=F ICtDFT=           0.
 Calling FoFJK, ICntrl=  10002127 FMM=F ISym2X=1 I1Cent= 0 IOpClX= 0 NMat=1 NMatS=1 NMatT=0.
 FoFJK:  IHMeth= 1 ICntrl=10002127 DoSepK=F KAlg= 0 I1Cent=           0 FoldK=F
 IRaf=         0 NMat=       1 IRICut=       1 DoRegI=T DoRafI=F ISym2E= 1 IDoP0=0 IntGTp=1.
 FoFCou: FMM=F IPFlag=           0 FMFlag=      100000 FMFlg1=         800
         NFxFlg=           0 DoJE=F BraDBF=F KetDBF=F FulRan=T
         wScrn=  0.000000 ICntrl=  10002127 IOpCl=  0 I1Cent=           0 NGrid=           0
         NMat0=    1 NMatS0=      1 NMatT0=    0 NMatD0=    1 NMtDS0=    0 NMtDT0=    0
 Petite list used in FoFCou.
 Leave Link  703 at Tue Jan 18 15:46:59 2022, MaxMem= 16106127360 cpu:              31.8 elap:               1.2
 (Enter /sw/contrib/gaussian/g16/B01/g16/l716.exe)
 Dipole        =-9.48344934D-01 2.06016794D-01 5.48518456D-32
 ***** Axes restored to original set *****
 -------------------------------------------------------------------
 Center     Atomic                   Forces (Hartrees/Bohr)
 Number     Number              X              Y              Z
 -------------------------------------------------------------------
      1        1          -0.001656723    0.000000000    0.002827450
      2        8          -0.015789158   -0.000000000   -0.014440662
      3        7           0.015734297    0.000000000    0.059480969
      4        8           0.001711584   -0.000000000   -0.047867757
 -------------------------------------------------------------------
 Cartesian Forces:  Max     0.059480969 RMS     0.023360178
 -----------------------------------------------------------------------------------------------
                       Internal Coordinate Forces (Hartree/Bohr or radian)
  Cent   Atom   N1       Length/X         N2         Alpha/Y        N3         Beta/Z          J
 -----------------------------------------------------------------------------------------------
      1  H 
      2  O        1  -0.002827(     1)
      3  N        2   0.019530(     2)      1   0.003050(     4)
      4  O        3  -0.047374(     3)      2   0.016438(     5)      1   0.000000(     6)     0
 -----------------------------------------------------------------------------------------------
 Internal  Forces:  Max     0.047374324 RMS     0.022035124
 Leave Link  716 at Tue Jan 18 15:46:59 2022, MaxMem= 16106127360 cpu:               0.8 elap:               0.1
 (Enter /sw/contrib/gaussian/g16/B01/g16/l103.exe)

 GradGradGradGradGradGradGradGradGradGradGradGradGradGradGradGradGradGrad
 Berny optimization.
 Search for a local minimum.
 Step number   2 out of a maximum of   20
 All quantities printed in internal units (Hartrees-Bohrs-Radians)
 Update second derivatives using D2CorN and points    1    2
 DE= -2.28D-02 DEPred=-1.67D-02 R= 1.36D+00
 TightC=F SS=  1.41D+00  RLast= 2.38D-01 DXNew= 5.0454D-01 7.1430D-01
 Trust test= 1.36D+00 RLast= 2.38D-01 DXMaxT set to 5.05D-01
 The second derivative matrix:
                          r1        r2        r3        a1        a2
           r1           0.49392
           r2           0.00515   0.54158
           r3          -0.01429   0.04163   0.38105
           a1           0.00048   0.00605  -0.00450   0.16275
           a2           0.00460  -0.00720   0.04407   0.00360   0.24005
           d1           0.00000  -0.00000   0.00000   0.00000  -0.00000
                          d1
           d1           0.01917
 ITU=  1  0
     Eigenvalues ---    0.01917   0.16219   0.22642   0.38315   0.49571
     Eigenvalues ---    0.55187
 RFO step:  Lambda=-2.81039251D-03 EMin= 1.91652486D-02
 Quartic linear search produced a step of  0.38156.
 Variable       Old X    -DE/DX   Delta X   Delta X   Delta X     New X
                                 (Linear)    (Quad)   (Total)
    r1        1.84127  -0.00283  -0.01128   0.00684  -0.00444   1.83683
    r2        2.56356   0.01953   0.00258   0.04688   0.04946   2.61302
    r3        2.32649  -0.04737  -0.08788  -0.00875  -0.09663   2.22986
    a1        1.78690   0.00305  -0.01411   0.05398   0.03987   1.82677
    a2        1.89921   0.01644   0.01410   0.06855   0.08265   1.98186
    d1        3.14159   0.00000   0.00000   0.00000   0.00000   3.14159
         Item               Value     Threshold  Converged?
 Maximum Force            0.047374     0.000450     NO 
 RMS     Force            0.022035     0.000300     NO 
 Maximum Displacement     0.096630     0.001800     NO 
 RMS     Displacement     0.058056     0.001200     NO 
 Predicted change in Energy=-4.189322D-03
 Lowest energy point so far.  Saving SCF results.
 GradGradGradGradGradGradGradGradGradGradGradGradGradGradGradGradGradGrad

 Leave Link  103 at Tue Jan 18 15:46:59 2022, MaxMem= 16106127360 cpu:               0.5 elap:               0.0
 (Enter /sw/contrib/gaussian/g16/B01/g16/l202.exe)
 ---------------------------------------------------------------------------------------------------
                            Z-MATRIX (ANGSTROMS AND DEGREES)
   CD    Cent   Atom    N1       Length/X        N2       Alpha/Y        N3        Beta/Z          J
 ---------------------------------------------------------------------------------------------------
      1      1  H 
      2      2  O        1   0.972009(     1)
      3      3  N        2   1.382750(     2)      1  104.666(     4)
      4      4  O        3   1.179993(     3)      2  113.552(     5)      1  180.000(     6)      0
 ---------------------------------------------------------------------------------------------------
                         Z-Matrix orientation:                         
 ---------------------------------------------------------------------
 Center     Atomic      Atomic             Coordinates (Angstroms)
 Number     Number       Type             X           Y           Z
 ---------------------------------------------------------------------
      1          1           0        0.000000    0.000000    0.000000
      2          8           0        0.000000    0.000000    0.972009
      3          7           0        1.337696    0.000000    1.322104
      4          8           0        1.519966   -0.000000    2.487935
 ---------------------------------------------------------------------
                    Distance matrix (angstroms):
                    1          2          3          4
     1  H    0.000000
     2  O    0.972009   0.000000
     3  N    1.880795   1.382750   0.000000
     4  O    2.915496   2.146701   1.179993   0.000000
 Stoichiometry    HNO2
 Framework group  CS[SG(HNO2)]
 Deg. of freedom     5
 Full point group                 CS      NOp   2
 RotChk:  IX=2 Diff= 8.89D-02
 Largest Abelian subgroup         CS      NOp   2
 Largest concise Abelian subgroup C1      NOp   1
                         Standard orientation:                         
 ---------------------------------------------------------------------
 Center     Atomic      Atomic             Coordinates (Angstroms)
 Number     Number       Type             X           Y           Z
 ---------------------------------------------------------------------
      1          1           0       -1.776740   -0.125605    0.000000
      2          8           0       -0.904506   -0.554569    0.000000
      3          7           0       -0.000000    0.491312    0.000000
      4          8           0        1.126598    0.140372   -0.000000
 ---------------------------------------------------------------------
 Rotational constants (GHZ):         102.0604683          12.5776113          11.1976483
 Leave Link  202 at Tue Jan 18 15:46:59 2022, MaxMem= 16106127360 cpu:               1.7 elap:               0.1
 (Enter /sw/contrib/gaussian/g16/B01/g16/l301.exe)
 Standard basis: Aug-CC-pVTZ (5D, 7F)
 Ernie: Thresh=  0.10000D-02 Tol=  0.10000D-05 Strict=F.
 Ernie:  9 primitive shells out of 101 were deleted.
 There are   129 symmetry adapted cartesian basis functions of A'  symmetry.
 There are    61 symmetry adapted cartesian basis functions of A"  symmetry.
 There are   106 symmetry adapted basis functions of A'  symmetry.
 There are    55 symmetry adapted basis functions of A"  symmetry.
   161 basis functions,   243 primitive gaussians,   190 cartesian basis functions
    12 alpha electrons       12 beta electrons
       nuclear repulsion energy        70.0981303168 Hartrees.
 IExCor=    0 DFT=F Ex=HF Corr=None ExCW=0 ScaHFX=  1.000000
 ScaDFX=  1.000000  1.000000  1.000000  1.000000 ScalE2=  1.000000  1.000000
 IRadAn=      5 IRanWt=     -1 IRanGd=            0 ICorTp=0 IEmpDi=  4
 NAtoms=    4 NActive=    4 NUniq=    4 SFac= 1.00D+00 NAtFMM=   60 NAOKFM=F Big=F
 Integral buffers will be    131072 words long.
 Raffenetti 1 integral format.
 Two-electron integral symmetry is turned on.
 Leave Link  301 at Tue Jan 18 15:47:00 2022, MaxMem= 16106127360 cpu:               1.5 elap:               0.1
 (Enter /sw/contrib/gaussian/g16/B01/g16/l302.exe)
 NPDir=0 NMtPBC=     1 NCelOv=     1 NCel=       1 NClECP=     1 NCelD=      1
         NCelK=      1 NCelE2=     1 NClLst=     1 CellRange=     0.0.
 One-electron integrals computed using PRISM.
 One-electron integral symmetry used in STVInt
 NBasis=   161 RedAO= T EigKep=  1.89D-04  NBF=   106    55
 NBsUse=   161 1.00D-06 EigRej= -1.00D+00 NBFU=   106    55
 Leave Link  302 at Tue Jan 18 15:47:00 2022, MaxMem= 16106127360 cpu:               3.9 elap:               0.2
 (Enter /sw/contrib/gaussian/g16/B01/g16/l303.exe)
 DipDrv:  MaxL=1.
 Leave Link  303 at Tue Jan 18 15:47:00 2022, MaxMem= 16106127360 cpu:               0.7 elap:               0.1
 (Enter /sw/contrib/gaussian/g16/B01/g16/l401.exe)
 Initial guess from the checkpoint file:  "/gscratch/ilahie/mccoygrp/coire_hoono/hono/hono_eq.chk"
 B after Tr=     0.000000    0.000000    0.000000
         Rot=    0.999348    0.000000   -0.000000   -0.036100 Ang=  -4.14 deg.
 Guess basis will be translated and rotated to current coordinates.
 JPrj=2 DoOrth=T DoCkMO=T.
 Initial guess orbital symmetries:
       Occupied  (A') (A') (A') (A') (A') (A') (A') (A') (A") (A')
                 (A") (A')
       Virtual   (A') (A") (A') (A') (A") (A') (A') (A') (A") (A')
                 (A") (A') (A') (A") (A') (A') (A') (A') (A') (A')
                 (A") (A') (A") (A') (A') (A') (A") (A") (A') (A')
                 (A") (A') (A') (A") (A") (A') (A') (A') (A") (A')
                 (A') (A') (A') (A") (A") (A') (A') (A") (A') (A')
                 (A") (A') (A") (A') (A') (A") (A') (A") (A') (A")
                 (A') (A') (A") (A') (A') (A") (A') (A') (A") (A")
                 (A') (A') (A') (A") (A') (A") (A') (A") (A') (A')
                 (A") (A') (A') (A") (A') (A") (A') (A") (A') (A')
                 (A') (A') (A') (A") (A') (A') (A") (A") (A') (A")
                 (A') (A") (A') (A') (A') (A") (A') (A") (A') (A")
                 (A') (A") (A') (A') (A") (A') (A") (A') (A') (A')
                 (A') (A') (A") (A') (A") (A") (A') (A') (A") (A')
                 (A") (A") (A') (A") (A') (A") (A') (A") (A") (A')
                 (A') (A') (A') (A') (A') (A') (A') (A') (A')
 The electronic state of the initial guess is 1-A'.
 Generating alternative initial guess.
 ExpMin= 2.53D-02 ExpMax= 1.53D+04 ExpMxC= 5.22D+02 IAcc=3 IRadAn=         5 AccDes= 0.00D+00
 Harris functional with IExCor=  205 and IRadAn=       5 diagonalized for initial guess.
 HarFok:  IExCor=  205 AccDes= 0.00D+00 IRadAn=         5 IDoV= 1 UseB2=F ITyADJ=14
 ICtDFT=  3500011 ScaDFX=  1.000000  1.000000  1.000000  1.000000
 FoFCou: FMM=F IPFlag=           0 FMFlag=      100000 FMFlg1=           0
         NFxFlg=           0 DoJE=T BraDBF=F KetDBF=T FulRan=T
         wScrn=  0.000000 ICntrl=       500 IOpCl=  0 I1Cent=   200000004 NGrid=           0
         NMat0=    1 NMatS0=      1 NMatT0=    0 NMatD0=    1 NMtDS0=    0 NMtDT0=    0
 Petite list used in FoFCou.
 Harris En= -204.817859284865    
 Leave Link  401 at Tue Jan 18 15:47:00 2022, MaxMem= 16106127360 cpu:               8.1 elap:               0.3
 (Enter /sw/contrib/gaussian/g16/B01/g16/l502.exe)
 Keep R1 ints in memory in symmetry-blocked form, NReq=128070121.
 FoFCou: FMM=F IPFlag=           0 FMFlag=           0 FMFlg1=           0
         NFxFlg=           0 DoJE=F BraDBF=F KetDBF=F FulRan=T
         wScrn=  0.000000 ICntrl=       600 IOpCl=  0 I1Cent=           0 NGrid=           0
         NMat0=    1 NMatS0=  13041 NMatT0=    0 NMatD0=    1 NMtDS0=    0 NMtDT0=    0
 Petite list used in FoFCou.
 Closed shell SCF:
 Using DIIS extrapolation, IDIIS=  1040.
 NGot= 16106127360 LenX= 16063019402 LenY= 16062982861
 Requested convergence on RMS density matrix=1.00D-08 within 128 cycles.
 Requested convergence on MAX density matrix=1.00D-06.
 Requested convergence on             energy=1.00D-06.
 No special actions if energy rises.

 Cycle   1  Pass 1  IDiag  1:
 E= -204.720593586678    
 DIIS: error= 3.73D-03 at cycle   1 NSaved=   1.
 NSaved= 1 IEnMin= 1 EnMin= -204.720593586678     IErMin= 1 ErrMin= 3.73D-03
 ErrMax= 3.73D-03  0.00D+00 EMaxC= 1.00D-01 BMatC= 4.79D-03 BMatP= 4.79D-03
 IDIUse=3 WtCom= 9.63D-01 WtEn= 3.73D-02
 Coeff-Com:  0.100D+01
 Coeff-En:   0.100D+01
 Coeff:      0.100D+01
 Gap=     0.512 Goal=   None    Shift=    0.000
 GapD=    0.512 DampG=2.000 DampE=1.000 DampFc=2.0000 IDamp=-1.
 RMSDP=3.43D-04 MaxDP=7.71D-03              OVMax= 1.67D-02

 Cycle   2  Pass 1  IDiag  1:
 E= -204.725172994856     Delta-E=       -0.004579408178 Rises=F Damp=F
 DIIS: error= 1.60D-03 at cycle   2 NSaved=   2.
 NSaved= 2 IEnMin= 2 EnMin= -204.725172994856     IErMin= 2 ErrMin= 1.60D-03
 ErrMax= 1.60D-03  0.00D+00 EMaxC= 1.00D-01 BMatC= 3.44D-04 BMatP= 4.79D-03
 IDIUse=3 WtCom= 9.84D-01 WtEn= 1.60D-02
 Coeff-Com: -0.541D-01 0.105D+01
 Coeff-En:   0.000D+00 0.100D+01
 Coeff:     -0.532D-01 0.105D+01
 Gap=     0.481 Goal=   None    Shift=    0.000
 RMSDP=1.23D-04 MaxDP=2.63D-03 DE=-4.58D-03 OVMax= 9.44D-03

 Cycle   3  Pass 1  IDiag  1:
 E= -204.725627079088     Delta-E=       -0.000454084232 Rises=F Damp=F
 DIIS: error= 7.94D-04 at cycle   3 NSaved=   3.
 NSaved= 3 IEnMin= 3 EnMin= -204.725627079088     IErMin= 3 ErrMin= 7.94D-04
 ErrMax= 7.94D-04  0.00D+00 EMaxC= 1.00D-01 BMatC= 1.27D-04 BMatP= 3.44D-04
 IDIUse=3 WtCom= 9.92D-01 WtEn= 7.94D-03
 Coeff-Com: -0.914D-01 0.346D+00 0.746D+00
 Coeff-En:   0.000D+00 0.000D+00 0.100D+01
 Coeff:     -0.907D-01 0.343D+00 0.748D+00
 Gap=     0.484 Goal=   None    Shift=    0.000
 RMSDP=4.62D-05 MaxDP=1.41D-03 DE=-4.54D-04 OVMax= 2.57D-03

 Cycle   4  Pass 1  IDiag  1:
 E= -204.725734044014     Delta-E=       -0.000106964927 Rises=F Damp=F
 DIIS: error= 2.40D-04 at cycle   4 NSaved=   4.
 NSaved= 4 IEnMin= 4 EnMin= -204.725734044014     IErMin= 4 ErrMin= 2.40D-04
[...]
 Diagonal vibrational polarizability:
       18.9660486       6.3185180       7.7696378
 Harmonic frequencies (cm**-1), IR intensities (KM/Mole), Raman scattering
 activities (A**4/AMU), depolarization ratios for plane and unpolarized
 incident light, reduced masses (AMU), force constants (mDyne/A),
 and normal coordinates:
                      1                      2                      3
                     A"                     A'                     A'
 Frequencies --    586.3643               602.1244               804.8883
 Red. masses --      1.1615                11.5316                 5.8520
 Frc consts  --      0.2353                 2.4633                 2.2337
 IR Inten    --     99.2665               196.5725               159.0446
  Atom  AN      X      Y      Z        X      Y      Z        X      Y      Z
     1   1     0.00  -0.00   0.99     0.16  -0.51  -0.00    -0.28  -0.75  -0.00
     2   8     0.00   0.00  -0.06     0.58   0.32   0.00     0.01  -0.20   0.00
     3   7    -0.00   0.00  -0.07    -0.33  -0.00   0.00     0.19   0.48   0.00
     4   8    -0.00  -0.00   0.05    -0.30  -0.28  -0.00    -0.15  -0.18  -0.00
                      4                      5                      6
                     A'                     A'                     A'
 Frequencies --   1283.4084              1661.3771              3754.9452
 Red. masses --      1.2781                10.0300                 1.0666
 Frc consts  --      1.2404                16.3112                 8.8606
 IR Inten    --    174.3520               109.3387                90.2983
  Atom  AN      X      Y      Z        X      Y      Z        X      Y      Z
     1   1     0.51   0.85   0.00    -0.27  -0.52  -0.00     0.89  -0.45  -0.00
     2   8     0.04  -0.08  -0.00     0.02   0.12   0.00    -0.06   0.03   0.00
     3   7     0.02   0.03  -0.00     0.53  -0.32   0.00    -0.00   0.00   0.00
     4   8    -0.09  -0.01   0.00    -0.47   0.19  -0.00     0.00  -0.00  -0.00

 -------------------
 - Thermochemistry -
 -------------------
 Temperature   298.150 Kelvin.  Pressure   1.00000 Atm.
 Atom     1 has atomic number  1 and mass   1.00783
 Atom     2 has atomic number  8 and mass  15.99491
 Atom     3 has atomic number  7 and mass  14.00307
 Atom     4 has atomic number  8 and mass  15.99491
 Molecular mass:    47.00073 amu.
 Principal axes and moments of inertia in atomic units:
                           1         2         3
     Eigenvalues --    19.47980 143.61463 163.09442
           X            0.93622  -0.35141   0.00000
           Y            0.35141   0.93622   0.00000
           Z            0.00000  -0.00000   1.00000
 This molecule is an asymmetric top.
 Rotational symmetry number  1.
 Rotational temperatures (Kelvin)      4.44635     0.60310     0.53107
 Rotational constants (GHZ):          92.64682    12.56656    11.06562
 Zero-point vibrational energy      51996.3 (Joules/Mol)
                                   12.42742 (Kcal/Mol)
 Warning -- explicit consideration of   2 degrees of freedom as
           vibrations may cause significant error
 Vibrational temperatures:    843.65   866.32  1158.05  1846.54  2390.35
          (Kelvin)           5402.53
 
 Zero-point correction=                           0.019804 (Hartree/Particle)
 Thermal correction to Energy=                    0.023055
 Thermal correction to Enthalpy=                  0.023999
 Thermal correction to Gibbs Free Energy=        -0.004213
 Sum of electronic and zero-point Energies=           -205.401550
 Sum of electronic and thermal Energies=              -205.398300
 Sum of electronic and thermal Enthalpies=            -205.397356
 Sum of electronic and thermal Free Energies=         -205.425567
 
                     E (Thermal)             CV                S
                      KCal/Mol        Cal/Mol-Kelvin    Cal/Mol-Kelvin
 Total                   14.467              8.891             59.376
 Electronic               0.000              0.000              0.000
 Translational            0.889              2.981             37.467
 Rotational               0.889              2.981             20.750
 Vibrational             12.690              2.929              1.158
 Vibration     1          0.943              1.061              0.474
 Vibration     2          0.960              1.027              0.446
                       Q            Log10(Q)             Ln(Q)
 Total Bot       0.866210D+02          1.937623          4.461542
 Total V=0       0.111426D+12         11.046987         25.436627
 Vib (Bot)       0.894449D-09         -9.048444        -20.834813
 Vib (Bot)    1  0.258217D+00         -0.588014         -1.353953
 Vib (Bot)    2  0.247446D+00         -0.606520         -1.396564
 Vib (V=0)       0.115059D+01          0.060919          0.140272
 Vib (V=0)    1  0.106274D+01          0.026427          0.060850
 Vib (V=0)    2  0.105788D+01          0.024436          0.056266
 Electronic      0.100000D+01          0.000000          0.000000
 Translational   0.126652D+08          7.102611         16.354366
 Rotational      0.764639D+04          3.883457          8.941990
 
                                                                title
                                                             IR Spectrum
 
     3                                                                      1            1                                           
     7                                                                      6            2               8      65                   
     5                                                                      6            8               0      08                   
     5                                                                      1            3               5      26                   
 
     X                                                                      X            X               X      XX                   
     X                                                                      X            X               X      XX                   
     X                                                                      X            X               X      XX                   
     X                                                                      X            X               X      XX                   
     X                                                                      X            X               X      XX                   
     X                                                                      X            X               X      XX                   
     X                                                                      X            X               X      XX                   
     X                                                                      X            X               X      XX                   
     X                                                                      X            X               X      XX                   
                                                                            X            X               X      XX                   
                                                                            X            X               X      X                    
                                                                                         X               X      X                    
                                                                                         X               X      X                    
                                                                                         X               X      X                    
                                                                                         X               X      X                    
                                                                                         X               X      X                    
                                                                                         X                      X                    
                                                                                         X                      X                    
                                                                                                                X                    
                                                                                                                X                    
 
 ***** Axes restored to original set *****
 -------------------------------------------------------------------
 Center     Atomic                   Forces (Hartrees/Bohr)
 Number     Number              X              Y              Z
 -------------------------------------------------------------------
      1        1          -0.000008352    0.000000000   -0.000003421
      2        8          -0.000000171   -0.000000000   -0.000003978
      3        7          -0.000043861   -0.000000000   -0.000321439
      4        8           0.000052384    0.000000000    0.000328837
 -------------------------------------------------------------------
 Cartesian Forces:  Max     0.000328837 RMS     0.000134233
 -----------------------------------------------------------------------------------------------
                       Internal Coordinate Forces (Hartree/Bohr or radian)
  Cent   Atom   N1       Length/X         N2         Alpha/Y        N3         Beta/Z          J
 -----------------------------------------------------------------------------------------------
      1  H 
      2  O        1   0.000003(     1)
      3  N        2   0.000010(     2)      1   0.000015(     4)
      4  O        3   0.000333(     3)      2  -0.000000(     5)      1  -0.000000(     6)     0
 -----------------------------------------------------------------------------------------------
 Internal  Forces:  Max     0.000332983 RMS     0.000136150
 Force constants in Cartesian coordinates: 
                1             2             3             4             5 
      1  0.549876D-01
      2  0.000000D+00  0.112558D-01
      3  0.635750D-02  0.000000D+00  0.506510D+00
      4 -0.453545D-01  0.000000D+00 -0.887507D-02  0.192314D+00
      5  0.000000D+00 -0.996823D-02  0.000000D+00  0.000000D+00  0.882541D-02
      6  0.475769D-01  0.000000D+00 -0.496693D+00 -0.213310D-02  0.000000D+00
      7  0.842052D-02  0.000000D+00  0.869240D-02 -0.139095D+00  0.000000D+00
      8  0.000000D+00 -0.110060D-01  0.000000D+00  0.000000D+00  0.974697D-02
      9 -0.448870D-01  0.000000D+00 -0.158109D-01  0.133877D+00  0.000000D+00
     10 -0.180537D-01  0.000000D+00 -0.617482D-02 -0.786458D-02  0.000000D+00
     11  0.000000D+00  0.971849D-02  0.000000D+00  0.000000D+00 -0.860414D-02
     12 -0.904748D-02  0.000000D+00  0.599420D-02 -0.122869D+00  0.000000D+00
                6             7             8             9            10 
      6  0.619511D+00
      7  0.605340D-01  0.241129D+00
      8  0.000000D+00  0.000000D+00  0.106140D-01
      9 -0.655596D-01 -0.569568D-01  0.000000D+00  0.797733D+00
     10 -0.105978D+00 -0.110454D+00  0.000000D+00 -0.320330D-01  0.136373D+00
     11  0.000000D+00  0.000000D+00 -0.935493D-02  0.000000D+00  0.000000D+00
     12 -0.572585D-01 -0.122696D-01  0.000000D+00 -0.716362D+00  0.144186D+00
               11            12 
     11  0.824058D-02
     12  0.000000D+00  0.767626D+00
 Force constants in internal coordinates: 
                1             2             3             4             5 
      1  0.506510D+00
      2 -0.487320D-03  0.172568D+00
      3 -0.494452D-02  0.145367D+00  0.796845D+00
      4  0.116483D-01  0.372318D-01  0.216053D-01  0.184867D+00
      5  0.156635D-01  0.564101D-01  0.858892D-01  0.668671D-01  0.530665D+00
      6  0.000000D+00  0.000000D+00  0.000000D+00  0.000000D+00  0.000000D+00
                6 
      6  0.363054D-01
 Leave Link  716 at Tue Jan 18 15:49:57 2022, MaxMem= 16106127360 cpu:               1.5 elap:               0.1
 (Enter /sw/contrib/gaussian/g16/B01/g16/l103.exe)

 GradGradGradGradGradGradGradGradGradGradGradGradGradGradGradGradGradGrad
 Berny optimization.
 Search for a local minimum.
 Step number   1 out of a maximum of    2
 All quantities printed in internal units (Hartrees-Bohrs-Radians)
 Second derivative matrix not updated -- analytic derivatives used.
 The second derivative matrix:
                          r1        r2        r3        a1        a2
           r1           0.50651
           r2          -0.00049   0.17257
           r3          -0.00494   0.14537   0.79684
           a1           0.01165   0.03723   0.02161   0.18487
           a2           0.01566   0.05641   0.08589   0.06687   0.53067
           d1           0.00000  -0.00000  -0.00000  -0.00000  -0.00000
                          d1
           d1           0.03631
 ITU=  0
     Eigenvalues ---    0.03631   0.12356   0.18438   0.49263   0.53008
     Eigenvalues ---    0.86080
 Angle between quadratic step and forces=  39.07 degrees.
 Linear search not attempted -- first point.
 Variable       Old X    -DE/DX   Delta X   Delta X   Delta X     New X
                                 (Linear)    (Quad)   (Total)
    r1        1.83353   0.00000   0.00000   0.00001   0.00001   1.83354
    r2        2.69808   0.00001   0.00000  -0.00036  -0.00036   2.69772
    r3        2.22383   0.00033   0.00000   0.00049   0.00049   2.22432
    a1        1.77374   0.00002   0.00000   0.00012   0.00012   1.77386
    a2        1.93223  -0.00000   0.00000  -0.00006  -0.00006   1.93217
    d1        3.14159  -0.00000   0.00000  -0.00000   0.00000   3.14159
         Item               Value     Threshold  Converged?
 Maximum Force            0.000333     0.000450     YES
 RMS     Force            0.000136     0.000300     YES
 Maximum Displacement     0.000486     0.001800     YES
 RMS     Displacement     0.000253     0.001200     YES
 Predicted change in Energy=-8.015153D-08
 Optimization completed.
    -- Stationary point found.
                       ----------------------------
                       !   Optimized Parameters   !
                       ! (Angstroms and Degrees)  !
 ----------------------                            ----------------------
 !      Name          Value   Derivative information (Atomic Units)     !
 ------------------------------------------------------------------------
 !       r1          0.9703   -DE/DX =    0.0                           !
 !       r2          1.4278   -DE/DX =    0.0                           !
 !       r3          1.1768   -DE/DX =    0.0003                        !
 !       a1        101.6278   -DE/DX =    0.0                           !
 !       a2        110.7086   -DE/DX =    0.0                           !
 !       d1        180.0      -DE/DX =    0.0                           !
 ------------------------------------------------------------------------
 GradGradGradGradGradGradGradGradGradGradGradGradGradGradGradGradGradGrad

 Leave Link  103 at Tue Jan 18 15:49:58 2022, MaxMem= 16106127360 cpu:               0.6 elap:               0.0
 (Enter /sw/contrib/gaussian/g16/B01/g16/l9999.exe)

 ----------------------------------------------------------------------

 Electric dipole moment (input orientation):
 (Debye = 10**-18 statcoulomb cm , SI units = C m)
                  (au)            (Debye)         (10**-30 SI)
   Tot        0.737499D+00      0.187454D+01      0.625278D+01
   x         -0.880546D-01     -0.223813D+00     -0.746558D+00
   y          0.000000D+00      0.000000D+00      0.000000D+00
   z         -0.732224D+00     -0.186113D+01     -0.620805D+01

 Dipole polarizability, Alpha (input orientation).
 (esu units = cm**3 , SI units = C**2 m**2 J**-1)
 Alpha(0;0):
               (au)            (10**-24 esu)      (10**-40 SI)
   iso        0.209255D+02      0.310084D+01      0.345015D+01
   aniso      0.143404D+02      0.212502D+01      0.236440D+01
   xx         0.240531D+02      0.356431D+01      0.396582D+01
   yx         0.000000D+00      0.000000D+00      0.000000D+00
   yy         0.146301D+02      0.216796D+01      0.241218D+01
   zx         0.623088D+01      0.923321D+00      0.102733D+01
   zy         0.000000D+00      0.000000D+00      0.000000D+00
   zz         0.240933D+02      0.357027D+01      0.397246D+01

 ----------------------------------------------------------------------

 Dipole orientation:
     1          0.00000000          0.00000000         -0.00000000
     8         -0.21891665          0.00000000         -1.82041503
     7          2.33996325          0.00000000         -2.67586156
     8          2.42624466          0.00000000         -4.89802095

 Electric dipole moment (dipole orientation):
 (Debye = 10**-18 statcoulomb cm , SI units = C m)
                  (au)            (Debye)         (10**-30 SI)
   Tot        0.737499D+00      0.187454D+01      0.625278D+01
   x          0.000000D+00      0.000000D+00      0.000000D+00
   y          0.000000D+00      0.000000D+00      0.000000D+00
   z          0.737499D+00      0.187454D+01      0.625278D+01

 Dipole polarizability, Alpha (dipole orientation).
 (esu units = cm**3 , SI units = C**2 m**2 J**-1)
 Alpha(0;0):
               (au)            (10**-24 esu)      (10**-40 SI)
   iso        0.209255D+02      0.310084D+01      0.345015D+01
   aniso      0.143404D+02      0.212502D+01      0.236440D+01
   xx         0.225765D+02      0.334549D+01      0.372235D+01
   yx         0.000000D+00      0.000000D+00      0.000000D+00
   yy         0.146301D+02      0.216796D+01      0.241218D+01
   zx        -0.604846D+01     -0.896289D+00     -0.997256D+00
   zy         0.000000D+00      0.000000D+00      0.000000D+00
   zz         0.255700D+02      0.378909D+01      0.421593D+01

 ----------------------------------------------------------------------
 1\1\GINC-N2206\Freq\RMP2-FC\Aug-CC-pVTZ\H1N1O2\CGAVINH\18-Jan-2022\1\\
 #P Geom=AllCheck Guess=TCheck SCRF=Check GenChk RMP2(FC)/Aug-CC-pVTZ F
 req\\title\\0,1\H\O,1,r1\N,2,r2,1,a1\O,3,r3,2,a2,1,d1,0\\r1=0.97026274
 \r2=1.42776435\r3=1.17680217\a1=101.62778541\a2=110.70859147\d1=180.\\
 Version=ES64L-G16RevB.01\State=1-A'\HF=-204.723398\MP2=-205.4213546\RM
 SD=5.354e-10\RMSF=1.342e-04\ZeroPoint=0.0198044\Thermal=0.0230548\Dipo
 le=-0.0880546,0.,-0.7322238\DipoleDeriv=0.2456182,0.,0.0540735,0.,0.33
 29225,0.,0.08954,0.,0.2684766,-1.4261323,0.,-0.860809,0.,-0.3060865,0.
 ,-0.319757,0.,-0.4352009,1.4482933,0.,0.845448,0.,0.0219839,0.,1.00684
 81,0.,0.9477002,-0.2677792,0.,-0.0387124,0.,-0.0488199,0.,-0.7766312,0
 .,-0.7809759\Polar=24.0531228,0.,14.6300879,6.2308767,0.,24.0933492\Qu
 adrupole=-1.3672217,-0.140188,1.5074097,0.,1.2808455,0.\PG=CS [SG(H1N1
 O2)]\NImag=0\\0.05498764,0.,0.01125578,0.00635750,0.,0.50651009,-0.045
 35447,0.,-0.00887507,0.19231431,0.,-0.00996823,0.,0.,0.00882541,0.0475
 7694,0.,-0.49669338,-0.00213310,0.,0.61951145,0.00842052,0.,0.00869240
 ,-0.13909526,0.,0.06053399,0.24112904,0.,-0.01100604,0.,0.,0.00974697,
 0.,0.,0.01061400,-0.04488695,0.,-0.01581091,0.13387675,0.,-0.06555962,
 -0.05695684,0.,0.79773255,-0.01805368,0.,-0.00617482,-0.00786458,0.,-0
 .10597783,-0.11045429,0.,-0.03203295,0.13637255,0.,0.00971849,0.,0.,-0
 .00860414,0.,0.,-0.00935493,0.,0.,0.00824058,-0.00904748,0.,0.00599420
 ,-0.12286857,0.,-0.05725845,-0.01226955,0.,-0.71636203,0.14418560,0.,0
 .76762628\\0.00000835,0.,0.00000342,0.00000017,0.,0.00000398,0.0000438
 6,0.,0.00032144,-0.00005238,0.,-0.00032884\\\@


 IT IS DOUBTED WHETHER A MAN EVER BRINGS HIS FACULTIES TO BEAR WITH THEIR FULL FORCE
 ON A SUBJECT UNTIL HE WRITES UPON IT.

                          -- CICERO
 Job cpu time:       0 days  0 hours 43 minutes  6.1 seconds.
 Elapsed time:       0 days  0 hours  1 minutes 34.0 seconds.
 File lengths (MBytes):  RWF=   2790 Int=      0 D2E=      0 Chk=      8 Scr=      1
 Normal termination of Gaussian 16 at Tue Jan 18 15:49:58 2022.
